n -t * -s 0  -x 513 -y 517 -Z 0 -z 70  -v circle -c black
n -t * -s 1  -x 36 -y 529 -Z 0 -z 70  -v circle -c black
n -t * -s 2  -x 143 -y 666 -Z 0 -z 70  -v circle -c black
n -t * -s 3  -x 201 -y 552 -Z 0 -z 70  -v circle -c black
n -t * -s 4  -x 147 -y 403 -Z 0 -z 70  -v circle -c black
n -t * -s 5  -x 230 -y 291 -Z 0 -z 70  -v circle -c black
n -t * -s 6  -x 295 -y 419 -Z 0 -z 70  -v circle -c black
n -t * -s 7  -x 363 -y 335 -Z 0 -z 70  -v circle -c black
n -t * -s 8  -x 334 -y 647 -Z 0 -z 70  -v circle -c black
n -t * -s 9  -x 304 -y 777 -Z 0 -z 70  -v circle -c black
n -t * -s 10  -x 412 -y 194 -Z 0 -z 70  -v circle -c black
n -t * -s 11  -x 519 -y 361 -Z 0 -z 70  -v circle -c black
n -t * -s 12  -x 569 -y 167 -Z 0 -z 70  -v circle -c black
n -t * -s 13  -x 349 -y 546 -Z 0 -z 70  -v circle -c black
n -t * -s 14  -x 466 -y 668 -Z 0 -z 70  -v circle -c black
n -t * -s 15  -x 489 -y 794 -Z 0 -z 70  -v circle -c black
n -t * -s 16  -x 606 -y 711 -Z 0 -z 70  -v circle -c black
n -t * -s 17  -x 630 -y 626 -Z 0 -z 70  -v circle -c black
n -t * -s 18  -x 666 -y 347 -Z 0 -z 70  -v circle -c black
n -t * -s 19  -x 741 -y 152 -Z 0 -z 70  -v circle -c black
n -t * -s 20  -x 882 -y 264 -Z 0 -z 70  -v circle -c black
n -t * -s 21  -x 761 -y 441 -Z 0 -z 70  -v circle -c black
V -t * -v 1.0a5 -a 0
W -t * -x 1000 -y 840
A -t * -n 1 -p 0 -o 0x7fffffff -c 30 -a 1
A -t * -h 1 -m 1073741823 -s 0
n -t 0 -s 0 -S DLABEL -l "node1" -L ""
n -t 0 -s 1 -S DLABEL -l "node2" -L ""
n -t 0 -s 2 -S DLABEL -l "node3" -L ""
n -t 0 -s 3 -S DLABEL -l "node4" -L ""
n -t 0 -s 4 -S DLABEL -l "node5" -L ""
n -t 0 -s 5 -S DLABEL -l "node6" -L ""
n -t 0 -s 6 -S DLABEL -l "node7" -L ""
n -t 0 -s 7 -S DLABEL -l "node8" -L ""
n -t 0 -s 8 -S DLABEL -l "node9" -L ""
n -t 0 -s 9 -S DLABEL -l "node10" -L ""
n -t 0 -s 10 -S DLABEL -l "node11" -L ""
n -t 0 -s 11 -S DLABEL -l "node12" -L ""
n -t 0 -s 12 -S DLABEL -l "node13" -L ""
n -t 0 -s 13 -S DLABEL -l "node14" -L ""
n -t 0 -s 14 -S DLABEL -l "node15" -L ""
n -t 0 -s 15 -S DLABEL -l "node16" -L ""
n -t 0 -s 16 -S DLABEL -l "node17" -L ""
n -t 0 -s 17 -S DLABEL -l "node18" -L ""
n -t 0 -s 18 -S DLABEL -l "node19" -L ""
n -t 0 -s 19 -S DLABEL -l "node20" -L ""
n -t 0 -s 20 -S DLABEL -l "node21" -L ""
n -t 0 -s 21 -S DLABEL -l "node22" -L ""
n -t 0 -s 0 -S COLOR -c green -o green -i green -I green
n -t 0 -s 1 -S COLOR -c green -o green -i green -I green
n -t 0 -s 2 -S COLOR -c green -o green -i green -I green
n -t 0 -s 3 -S COLOR -c green -o green -i green -I green
n -t 0 -s 4 -S COLOR -c green -o green -i green -I green
n -t 0 -s 5 -S COLOR -c green -o green -i green -I green
n -t 0 -s 6 -S COLOR -c green -o green -i green -I green
n -t 0 -s 7 -S COLOR -c green -o green -i green -I green
n -t 0 -s 8 -S COLOR -c yellow -o yellow -i yellow -I yellow
n -t 0 -s 9 -S COLOR -c yellow -o yellow -i yellow -I yellow
n -t 0 -s 10 -S COLOR -c yellow -o yellow -i yellow -I yellow
n -t 0 -s 11 -S COLOR -c pink -o pink -i pink -I pink
n -t 0 -s 12 -S COLOR -c pink -o pink -i pink -I pink
n -t 0 -s 13 -S COLOR -c pink -o pink -i pink -I pink
n -t 0 -s 14 -S COLOR -c pink -o pink -i pink -I pink
n -t 0 -s 15 -S COLOR -c pink -o pink -i pink -I pink
n -t 0 -s 16 -S COLOR -c orange -o orange -i orange -I orange
n -t 0 -s 17 -S COLOR -c orange -o orange -i orange -I orange
n -t 0 -s 18 -S COLOR -c orange -o orange -i orange -I orange
n -t 0 -s 19 -S COLOR -c orange -o orange -i orange -I orange
n -t 0 -s 20 -S COLOR -c orange -o orange -i orange -I orange
n -t 0 -s 21 -S COLOR -c orange -o orange -i orange -I orange
v -t 0 set_rate_ext 0.014999999999999999 1
+ -t 0.000000000 -s 0 -d -1 -p cbr -e 1000 -c 2 -a 0 -i 0 -k AGT 
- -t 0.000000000 -s 0 -d -1 -p cbr -e 1000 -c 2 -a 0 -i 0 -k AGT
h -t 0.000000000 -s 0 -d -1 -p cbr -e 1000 -c 2 -a 0 -i 0 -k AGT
v -t 0 -e sim_annotation 0 1 MOBILE NODE MOVEMENTS
+ -t 0.000000000 -s 0 -d -1 -p AOMDV -e 52 -c 2 -a 0 -i 0 -k RTR 
- -t 0.000000000 -s 0 -d -1 -p AOMDV -e 52 -c 2 -a 0 -i 0 -k RTR
h -t 0.000000000 -s 0 -d -1 -p AOMDV -e 52 -c 2 -a 0 -i 0 -k RTR
+ -t 0.000155000 -s 0 -d -1 -p AOMDV -e 110 -c 2 -a 0 -i 0 -k MAC 
- -t 0.000155000 -s 0 -d -1 -p AOMDV -e 110 -c 2 -a 0 -i 0 -k MAC
h -t 0.000155000 -s 0 -d -1 -p AOMDV -e 110 -c 2 -a 0 -i 0 -k MAC
r -t 0.001035520 -s 11 -d -1 -p AOMDV -e 52 -c 2 -a 0 -i 0 -k MAC
r -t 0.001035527 -s 14 -d -1 -p AOMDV -e 52 -c 2 -a 0 -i 0 -k MAC
r -t 0.001035533 -s 17 -d -1 -p AOMDV -e 52 -c 2 -a 0 -i 0 -k MAC
r -t 0.001035555 -s 13 -d -1 -p AOMDV -e 52 -c 2 -a 0 -i 0 -k MAC
r -t 0.001035717 -s 16 -d -1 -p AOMDV -e 52 -c 2 -a 0 -i 0 -k MAC
r -t 0.001035737 -s 8 -d -1 -p AOMDV -e 52 -c 2 -a 0 -i 0 -k MAC
r -t 0.001035762 -s 18 -d -1 -p AOMDV -e 52 -c 2 -a 0 -i 0 -k MAC
r -t 0.001035786 -s 7 -d -1 -p AOMDV -e 52 -c 2 -a 0 -i 0 -k MAC
r -t 0.001035797 -s 6 -d -1 -p AOMDV -e 52 -c 2 -a 0 -i 0 -k MAC
r -t 0.001035865 -s 21 -d -1 -p AOMDV -e 52 -c 2 -a 0 -i 0 -k MAC
r -t 0.001035927 -s 15 -d -1 -p AOMDV -e 52 -c 2 -a 0 -i 0 -k MAC
r -t 0.001036047 -s 3 -d -1 -p AOMDV -e 52 -c 2 -a 0 -i 0 -k MAC
r -t 0.001036112 -s 9 -d -1 -p AOMDV -e 52 -c 2 -a 0 -i 0 -k MAC
r -t 0.001036128 -s 10 -d -1 -p AOMDV -e 52 -c 2 -a 0 -i 0 -k MAC
r -t 0.001036182 -s 12 -d -1 -p AOMDV -e 52 -c 2 -a 0 -i 0 -k MAC
r -t 0.001036207 -s 5 -d -1 -p AOMDV -e 52 -c 2 -a 0 -i 0 -k MAC
r -t 0.001036278 -s 4 -d -1 -p AOMDV -e 52 -c 2 -a 0 -i 0 -k MAC
r -t 0.001036330 -s 2 -d -1 -p AOMDV -e 52 -c 2 -a 0 -i 0 -k MAC
r -t 0.001036435 -s 19 -d -1 -p AOMDV -e 52 -c 2 -a 0 -i 0 -k MAC
r -t 0.001036491 -s 20 -d -1 -p AOMDV -e 52 -c 2 -a 0 -i 0 -k MAC
r -t 0.001036591 -s 1 -d -1 -p AOMDV -e 52 -c 2 -a 0 -i 0 -k MAC
r -t 0.001060520 -s 11 -d -1 -p AOMDV -e 52 -c 2 -a 0 -i 0 -k RTR
r -t 0.001060527 -s 14 -d -1 -p AOMDV -e 52 -c 2 -a 0 -i 0 -k RTR
r -t 0.001060533 -s 17 -d -1 -p AOMDV -e 52 -c 2 -a 0 -i 0 -k RTR
+ -t 0.001060533 -s 17 -d 0 -p AOMDV -e 52 -c 2 -a 0 -i 0 -k RTR 
- -t 0.001060533 -s 17 -d 0 -p AOMDV -e 52 -c 2 -a 0 -i 0 -k RTR
h -t 0.001060533 -s 17 -d 0 -p AOMDV -e 52 -c 2 -a 0 -i 0 -k RTR
r -t 0.001060555 -s 13 -d -1 -p AOMDV -e 52 -c 2 -a 0 -i 0 -k RTR
r -t 0.001060717 -s 16 -d -1 -p AOMDV -e 52 -c 2 -a 0 -i 0 -k RTR
r -t 0.001060737 -s 8 -d -1 -p AOMDV -e 52 -c 2 -a 0 -i 0 -k RTR
r -t 0.001060762 -s 18 -d -1 -p AOMDV -e 52 -c 2 -a 0 -i 0 -k RTR
r -t 0.001060786 -s 7 -d -1 -p AOMDV -e 52 -c 2 -a 0 -i 0 -k RTR
r -t 0.001060797 -s 6 -d -1 -p AOMDV -e 52 -c 2 -a 0 -i 0 -k RTR
r -t 0.001060865 -s 21 -d -1 -p AOMDV -e 52 -c 2 -a 0 -i 0 -k RTR
r -t 0.001060927 -s 15 -d -1 -p AOMDV -e 52 -c 2 -a 0 -i 0 -k RTR
r -t 0.001061047 -s 3 -d -1 -p AOMDV -e 52 -c 2 -a 0 -i 0 -k RTR
r -t 0.001061112 -s 9 -d -1 -p AOMDV -e 52 -c 2 -a 0 -i 0 -k RTR
r -t 0.001061128 -s 10 -d -1 -p AOMDV -e 52 -c 2 -a 0 -i 0 -k RTR
r -t 0.001061182 -s 12 -d -1 -p AOMDV -e 52 -c 2 -a 0 -i 0 -k RTR
r -t 0.001061207 -s 5 -d -1 -p AOMDV -e 52 -c 2 -a 0 -i 0 -k RTR
r -t 0.001061278 -s 4 -d -1 -p AOMDV -e 52 -c 2 -a 0 -i 0 -k RTR
r -t 0.001061330 -s 2 -d -1 -p AOMDV -e 52 -c 2 -a 0 -i 0 -k RTR
r -t 0.001061435 -s 19 -d -1 -p AOMDV -e 52 -c 2 -a 0 -i 0 -k RTR
r -t 0.001061491 -s 20 -d -1 -p AOMDV -e 52 -c 2 -a 0 -i 0 -k RTR
r -t 0.001061591 -s 1 -d -1 -p AOMDV -e 52 -c 2 -a 0 -i 0 -k RTR
+ -t 0.001224694 -s 7 -d -1 -p AOMDV -e 52 -c 2 -a 0 -i 0 -k RTR 
- -t 0.001224694 -s 7 -d -1 -p AOMDV -e 52 -c 2 -a 0 -i 0 -k RTR
h -t 0.001224694 -s 7 -d -1 -p AOMDV -e 52 -c 2 -a 0 -i 0 -k RTR
+ -t 0.001574362 -s 5 -d -1 -p AOMDV -e 52 -c 2 -a 0 -i 0 -k RTR 
- -t 0.001574362 -s 5 -d -1 -p AOMDV -e 52 -c 2 -a 0 -i 0 -k RTR
h -t 0.001574362 -s 5 -d -1 -p AOMDV -e 52 -c 2 -a 0 -i 0 -k RTR
+ -t 0.001615533 -s 17 -d -1 -p ARP -e 86 -c 2 -a 0 -i 0 -k MAC 
- -t 0.001615533 -s 17 -d -1 -p ARP -e 86 -c 2 -a 0 -i 0 -k MAC
h -t 0.001615533 -s 17 -d -1 -p ARP -e 86 -c 2 -a 0 -i 0 -k MAC
+ -t 0.001976027 -s 21 -d -1 -p AOMDV -e 52 -c 2 -a 0 -i 0 -k RTR 
- -t 0.001976027 -s 21 -d -1 -p AOMDV -e 52 -c 2 -a 0 -i 0 -k RTR
h -t 0.001976027 -s 21 -d -1 -p AOMDV -e 52 -c 2 -a 0 -i 0 -k RTR
r -t 0.002303827 -s 16 -d -1 -p ARP -e 28 -c 2 -a 0 -i 0 -k MAC
r -t 0.002304066 -s 0 -d -1 -p ARP -e 28 -c 2 -a 0 -i 0 -k MAC
r -t 0.002304097 -s 14 -d -1 -p ARP -e 28 -c 2 -a 0 -i 0 -k MAC
r -t 0.002304264 -s 15 -d -1 -p ARP -e 28 -c 2 -a 0 -i 0 -k MAC
r -t 0.002304289 -s 21 -d -1 -p ARP -e 28 -c 2 -a 0 -i 0 -k MAC
r -t 0.002304471 -s 18 -d -1 -p ARP -e 28 -c 2 -a 0 -i 0 -k MAC
r -t 0.002304491 -s 11 -d -1 -p ARP -e 28 -c 2 -a 0 -i 0 -k MAC
r -t 0.002304507 -s 13 -d -1 -p ARP -e 28 -c 2 -a 0 -i 0 -k MAC
r -t 0.002304522 -s 8 -d -1 -p ARP -e 28 -c 2 -a 0 -i 0 -k MAC
r -t 0.002304731 -s 9 -d -1 -p ARP -e 28 -c 2 -a 0 -i 0 -k MAC
r -t 0.002304846 -s 6 -d -1 -p ARP -e 28 -c 2 -a 0 -i 0 -k MAC
r -t 0.002304849 -s 7 -d -1 -p ARP -e 28 -c 2 -a 0 -i 0 -k MAC
r -t 0.002304984 -s 3 -d -1 -p ARP -e 28 -c 2 -a 0 -i 0 -k MAC
r -t 0.002305003 -s 20 -d -1 -p ARP -e 28 -c 2 -a 0 -i 0 -k MAC
r -t 0.002305076 -s 12 -d -1 -p ARP -e 28 -c 2 -a 0 -i 0 -k MAC
r -t 0.002305146 -s 10 -d -1 -p ARP -e 28 -c 2 -a 0 -i 0 -k MAC
r -t 0.002305156 -s 19 -d -1 -p ARP -e 28 -c 2 -a 0 -i 0 -k MAC
r -t 0.002305162 -s 2 -d -1 -p ARP -e 28 -c 2 -a 0 -i 0 -k MAC
r -t 0.002305272 -s 5 -d -1 -p ARP -e 28 -c 2 -a 0 -i 0 -k MAC
r -t 0.002305306 -s 4 -d -1 -p ARP -e 28 -c 2 -a 0 -i 0 -k MAC
r -t 0.002305539 -s 1 -d -1 -p ARP -e 28 -c 2 -a 0 -i 0 -k MAC
+ -t 0.002555272 -s 5 -d -1 -p AOMDV -e 110 -c 2 -a 0 -i 0 -k MAC 
- -t 0.002555272 -s 5 -d -1 -p AOMDV -e 110 -c 2 -a 0 -i 0 -k MAC
h -t 0.002555272 -s 5 -d -1 -p AOMDV -e 110 -c 2 -a 0 -i 0 -k MAC
r -t 0.003435737 -s 4 -d -1 -p AOMDV -e 52 -c 2 -a 0 -i 0 -k MAC
r -t 0.003435739 -s 7 -d -1 -p AOMDV -e 52 -c 2 -a 0 -i 0 -k MAC
r -t 0.003435751 -s 6 -d -1 -p AOMDV -e 52 -c 2 -a 0 -i 0 -k MAC
r -t 0.003435960 -s 10 -d -1 -p AOMDV -e 52 -c 2 -a 0 -i 0 -k MAC
r -t 0.003436148 -s 3 -d -1 -p AOMDV -e 52 -c 2 -a 0 -i 0 -k MAC
r -t 0.003436210 -s 13 -d -1 -p AOMDV -e 52 -c 2 -a 0 -i 0 -k MAC
r -t 0.003436263 -s 11 -d -1 -p AOMDV -e 52 -c 2 -a 0 -i 0 -k MAC
r -t 0.003436296 -s 1 -d -1 -p AOMDV -e 52 -c 2 -a 0 -i 0 -k MAC
r -t 0.003436475 -s 12 -d -1 -p AOMDV -e 52 -c 2 -a 0 -i 0 -k MAC
r -t 0.003436479 -s 0 -d -1 -p AOMDV -e 52 -c 2 -a 0 -i 0 -k MAC
r -t 0.003436508 -s 8 -d -1 -p AOMDV -e 52 -c 2 -a 0 -i 0 -k MAC
r -t 0.003436555 -s 2 -d -1 -p AOMDV -e 52 -c 2 -a 0 -i 0 -k MAC
r -t 0.003436737 -s 18 -d -1 -p AOMDV -e 52 -c 2 -a 0 -i 0 -k MAC
r -t 0.003436755 -s 14 -d -1 -p AOMDV -e 52 -c 2 -a 0 -i 0 -k MAC
r -t 0.003436911 -s 9 -d -1 -p AOMDV -e 52 -c 2 -a 0 -i 0 -k MAC
r -t 0.003437011 -s 17 -d -1 -p AOMDV -e 52 -c 2 -a 0 -i 0 -k MAC
r -t 0.003437037 -s 19 -d -1 -p AOMDV -e 52 -c 2 -a 0 -i 0 -k MAC
r -t 0.003437111 -s 21 -d -1 -p AOMDV -e 52 -c 2 -a 0 -i 0 -k MAC
r -t 0.003437151 -s 16 -d -1 -p AOMDV -e 52 -c 2 -a 0 -i 0 -k MAC
r -t 0.003437158 -s 15 -d -1 -p AOMDV -e 52 -c 2 -a 0 -i 0 -k MAC
r -t 0.003437447 -s 20 -d -1 -p AOMDV -e 52 -c 2 -a 0 -i 0 -k MAC
+ -t 0.003454054 -s 18 -d -1 -p AOMDV -e 52 -c 2 -a 0 -i 0 -k RTR 
- -t 0.003454054 -s 18 -d -1 -p AOMDV -e 52 -c 2 -a 0 -i 0 -k RTR
h -t 0.003454054 -s 18 -d -1 -p AOMDV -e 52 -c 2 -a 0 -i 0 -k RTR
r -t 0.003460737 -s 4 -d -1 -p AOMDV -e 52 -c 2 -a 0 -i 0 -k RTR
r -t 0.003460739 -s 7 -d -1 -p AOMDV -e 52 -c 2 -a 0 -i 0 -k RTR
r -t 0.003460751 -s 6 -d -1 -p AOMDV -e 52 -c 2 -a 0 -i 0 -k RTR
r -t 0.003460960 -s 10 -d -1 -p AOMDV -e 52 -c 2 -a 0 -i 0 -k RTR
r -t 0.003461148 -s 3 -d -1 -p AOMDV -e 52 -c 2 -a 0 -i 0 -k RTR
r -t 0.003461210 -s 13 -d -1 -p AOMDV -e 52 -c 2 -a 0 -i 0 -k RTR
r -t 0.003461263 -s 11 -d -1 -p AOMDV -e 52 -c 2 -a 0 -i 0 -k RTR
r -t 0.003461296 -s 1 -d -1 -p AOMDV -e 52 -c 2 -a 0 -i 0 -k RTR
r -t 0.003461475 -s 12 -d -1 -p AOMDV -e 52 -c 2 -a 0 -i 0 -k RTR
r -t 0.003461479 -s 0 -d -1 -p AOMDV -e 52 -c 2 -a 0 -i 0 -k RTR
r -t 0.003461508 -s 8 -d -1 -p AOMDV -e 52 -c 2 -a 0 -i 0 -k RTR
r -t 0.003461555 -s 2 -d -1 -p AOMDV -e 52 -c 2 -a 0 -i 0 -k RTR
r -t 0.003461737 -s 18 -d -1 -p AOMDV -e 52 -c 2 -a 0 -i 0 -k RTR
r -t 0.003461755 -s 14 -d -1 -p AOMDV -e 52 -c 2 -a 0 -i 0 -k RTR
r -t 0.003461911 -s 9 -d -1 -p AOMDV -e 52 -c 2 -a 0 -i 0 -k RTR
r -t 0.003462011 -s 17 -d -1 -p AOMDV -e 52 -c 2 -a 0 -i 0 -k RTR
+ -t 0.003462011 -s 17 -d 5 -p AOMDV -e 52 -c 2 -a 0 -i 0 -k RTR 
- -t 0.003462011 -s 17 -d 5 -p AOMDV -e 52 -c 2 -a 0 -i 0 -k RTR
h -t 0.003462011 -s 17 -d 5 -p AOMDV -e 52 -c 2 -a 0 -i 0 -k RTR
r -t 0.003462037 -s 19 -d -1 -p AOMDV -e 52 -c 2 -a 0 -i 0 -k RTR
r -t 0.003462111 -s 21 -d -1 -p AOMDV -e 52 -c 2 -a 0 -i 0 -k RTR
r -t 0.003462151 -s 16 -d -1 -p AOMDV -e 52 -c 2 -a 0 -i 0 -k RTR
r -t 0.003462158 -s 15 -d -1 -p AOMDV -e 52 -c 2 -a 0 -i 0 -k RTR
r -t 0.003462447 -s 20 -d -1 -p AOMDV -e 52 -c 2 -a 0 -i 0 -k RTR
+ -t 0.003565739 -s 7 -d -1 -p AOMDV -e 110 -c 2 -a 0 -i 0 -k MAC 
- -t 0.003565739 -s 7 -d -1 -p AOMDV -e 110 -c 2 -a 0 -i 0 -k MAC
h -t 0.003565739 -s 7 -d -1 -p AOMDV -e 110 -c 2 -a 0 -i 0 -k MAC
+ -t 0.003566479 -s 0 -d -1 -p RTS -e 44 -c 2 -a 0 -i 0 -k MAC 
- -t 0.003566479 -s 0 -d -1 -p RTS -e 44 -c 2 -a 0 -i 0 -k MAC
h -t 0.003566479 -s 0 -d -1 -p RTS -e 44 -c 2 -a 0 -i 0 -k MAC
r -t 0.003919012 -s 17 -d -1 -p RTS -e 44 -c 2 -a 0 -i 0 -k MAC
r -t 0.004446099 -s 6 -d -1 -p AOMDV -e 52 -c 2 -a 0 -i 0 -k MAC
r -t 0.004446206 -s 5 -d -1 -p AOMDV -e 52 -c 2 -a 0 -i 0 -k MAC
r -t 0.004446237 -s 10 -d -1 -p AOMDV -e 52 -c 2 -a 0 -i 0 -k MAC
d -t 0.004446266 -s 11 -d -1 -p AOMDV -e 110 -c 2 -a 0 -i 0 -k MAC
d -t 0.004446444 -s 13 -d -1 -p AOMDV -e 110 -c 2 -a 0 -i 0 -k MAC
d -t 0.004446494 -s 4 -d -1 -p AOMDV -e 110 -c 2 -a 0 -i 0 -k MAC
d -t 0.004446625 -s 12 -d -1 -p AOMDV -e 110 -c 2 -a 0 -i 0 -k MAC
d -t 0.004446642 -s 3 -d -1 -p AOMDV -e 110 -c 2 -a 0 -i 0 -k MAC
d -t 0.004446750 -s 18 -d -1 -p AOMDV -e 110 -c 2 -a 0 -i 0 -k MAC
d -t 0.004446784 -s 8 -d -1 -p AOMDV -e 110 -c 2 -a 0 -i 0 -k MAC
d -t 0.004446901 -s 14 -d -1 -p AOMDV -e 110 -c 2 -a 0 -i 0 -k MAC
d -t 0.004447007 -s 1 -d -1 -p AOMDV -e 110 -c 2 -a 0 -i 0 -k MAC
d -t 0.004447064 -s 2 -d -1 -p AOMDV -e 110 -c 2 -a 0 -i 0 -k MAC
d -t 0.004447112 -s 21 -d -1 -p AOMDV -e 110 -c 2 -a 0 -i 0 -k MAC
d -t 0.004447139 -s 19 -d -1 -p AOMDV -e 110 -c 2 -a 0 -i 0 -k MAC
+ -t 0.004447199 -s 20 -d -1 -p AOMDV -e 52 -c 2 -a 0 -i 0 -k RTR 
- -t 0.004447199 -s 20 -d -1 -p AOMDV -e 52 -c 2 -a 0 -i 0 -k RTR
h -t 0.004447199 -s 20 -d -1 -p AOMDV -e 52 -c 2 -a 0 -i 0 -k RTR
d -t 0.004447226 -s 9 -d -1 -p AOMDV -e 110 -c 2 -a 0 -i 0 -k MAC
d -t 0.004447326 -s 15 -d -1 -p AOMDV -e 110 -c 2 -a 0 -i 0 -k MAC
d -t 0.004447485 -s 20 -d -1 -p AOMDV -e 110 -c 2 -a 0 -i 0 -k MAC
r -t 0.004471099 -s 6 -d -1 -p AOMDV -e 52 -c 2 -a 0 -i 0 -k RTR
r -t 0.004471206 -s 5 -d -1 -p AOMDV -e 52 -c 2 -a 0 -i 0 -k RTR
r -t 0.004471237 -s 10 -d -1 -p AOMDV -e 52 -c 2 -a 0 -i 0 -k RTR
+ -t 0.004492315 -s 2 -d -1 -p AOMDV -e 52 -c 2 -a 0 -i 0 -k RTR 
- -t 0.004492315 -s 2 -d -1 -p AOMDV -e 52 -c 2 -a 0 -i 0 -k RTR
h -t 0.004492315 -s 2 -d -1 -p AOMDV -e 52 -c 2 -a 0 -i 0 -k RTR
+ -t 0.004714168 -s 16 -d -1 -p AOMDV -e 52 -c 2 -a 0 -i 0 -k RTR 
- -t 0.004714168 -s 16 -d -1 -p AOMDV -e 52 -c 2 -a 0 -i 0 -k RTR
h -t 0.004714168 -s 16 -d -1 -p AOMDV -e 52 -c 2 -a 0 -i 0 -k RTR
+ -t 0.004882183 -s 8 -d -1 -p AOMDV -e 52 -c 2 -a 0 -i 0 -k RTR 
- -t 0.004882183 -s 8 -d -1 -p AOMDV -e 52 -c 2 -a 0 -i 0 -k RTR
h -t 0.004882183 -s 8 -d -1 -p AOMDV -e 52 -c 2 -a 0 -i 0 -k RTR
+ -t 0.004921056 -s 17 -d -1 -p ARP -e 86 -c 2 -a 0 -i 0 -k MAC 
- -t 0.004921056 -s 17 -d -1 -p ARP -e 86 -c 2 -a 0 -i 0 -k MAC
h -t 0.004921056 -s 17 -d -1 -p ARP -e 86 -c 2 -a 0 -i 0 -k MAC
r -t 0.005609350 -s 16 -d -1 -p ARP -e 28 -c 2 -a 0 -i 0 -k MAC
r -t 0.005609589 -s 0 -d -1 -p ARP -e 28 -c 2 -a 0 -i 0 -k MAC
r -t 0.005609620 -s 14 -d -1 -p ARP -e 28 -c 2 -a 0 -i 0 -k MAC
r -t 0.005609787 -s 15 -d -1 -p ARP -e 28 -c 2 -a 0 -i 0 -k MAC
r -t 0.005609811 -s 21 -d -1 -p ARP -e 28 -c 2 -a 0 -i 0 -k MAC
r -t 0.005609993 -s 18 -d -1 -p ARP -e 28 -c 2 -a 0 -i 0 -k MAC
r -t 0.005610013 -s 11 -d -1 -p ARP -e 28 -c 2 -a 0 -i 0 -k MAC
r -t 0.005610029 -s 13 -d -1 -p ARP -e 28 -c 2 -a 0 -i 0 -k MAC
r -t 0.005610045 -s 8 -d -1 -p ARP -e 28 -c 2 -a 0 -i 0 -k MAC
r -t 0.005610253 -s 9 -d -1 -p ARP -e 28 -c 2 -a 0 -i 0 -k MAC
r -t 0.005610368 -s 6 -d -1 -p ARP -e 28 -c 2 -a 0 -i 0 -k MAC
r -t 0.005610372 -s 7 -d -1 -p ARP -e 28 -c 2 -a 0 -i 0 -k MAC
r -t 0.005610507 -s 3 -d -1 -p ARP -e 28 -c 2 -a 0 -i 0 -k MAC
r -t 0.005610526 -s 20 -d -1 -p ARP -e 28 -c 2 -a 0 -i 0 -k MAC
r -t 0.005610599 -s 12 -d -1 -p ARP -e 28 -c 2 -a 0 -i 0 -k MAC
r -t 0.005610669 -s 10 -d -1 -p ARP -e 28 -c 2 -a 0 -i 0 -k MAC
r -t 0.005610678 -s 19 -d -1 -p ARP -e 28 -c 2 -a 0 -i 0 -k MAC
r -t 0.005610684 -s 2 -d -1 -p ARP -e 28 -c 2 -a 0 -i 0 -k MAC
r -t 0.005610795 -s 5 -d -1 -p ARP -e 28 -c 2 -a 0 -i 0 -k MAC
r -t 0.005610829 -s 4 -d -1 -p ARP -e 28 -c 2 -a 0 -i 0 -k MAC
r -t 0.005611062 -s 1 -d -1 -p ARP -e 28 -c 2 -a 0 -i 0 -k MAC
+ -t 0.005859993 -s 18 -d -1 -p AOMDV -e 110 -c 2 -a 0 -i 0 -k MAC 
- -t 0.005859993 -s 18 -d -1 -p AOMDV -e 110 -c 2 -a 0 -i 0 -k MAC
h -t 0.005859993 -s 18 -d -1 -p AOMDV -e 110 -c 2 -a 0 -i 0 -k MAC
+ -t 0.005952931 -s 6 -d -1 -p AOMDV -e 52 -c 2 -a 0 -i 0 -k RTR 
- -t 0.005952931 -s 6 -d -1 -p AOMDV -e 52 -c 2 -a 0 -i 0 -k RTR
h -t 0.005952931 -s 6 -d -1 -p AOMDV -e 52 -c 2 -a 0 -i 0 -k RTR
+ -t 0.006144756 -s 12 -d -1 -p AOMDV -e 52 -c 2 -a 0 -i 0 -k RTR 
- -t 0.006144756 -s 12 -d -1 -p AOMDV -e 52 -c 2 -a 0 -i 0 -k RTR
h -t 0.006144756 -s 12 -d -1 -p AOMDV -e 52 -c 2 -a 0 -i 0 -k RTR
+ -t 0.006533467 -s 11 -d -1 -p AOMDV -e 52 -c 2 -a 0 -i 0 -k RTR 
- -t 0.006533467 -s 11 -d -1 -p AOMDV -e 52 -c 2 -a 0 -i 0 -k RTR
h -t 0.006533467 -s 11 -d -1 -p AOMDV -e 52 -c 2 -a 0 -i 0 -k RTR
+ -t 0.006606943 -s 9 -d -1 -p AOMDV -e 52 -c 2 -a 0 -i 0 -k RTR 
- -t 0.006606943 -s 9 -d -1 -p AOMDV -e 52 -c 2 -a 0 -i 0 -k RTR
h -t 0.006606943 -s 9 -d -1 -p AOMDV -e 52 -c 2 -a 0 -i 0 -k RTR
r -t 0.006740439 -s 21 -d -1 -p AOMDV -e 52 -c 2 -a 0 -i 0 -k MAC
r -t 0.006740486 -s 11 -d -1 -p AOMDV -e 52 -c 2 -a 0 -i 0 -k MAC
r -t 0.006740675 -s 12 -d -1 -p AOMDV -e 52 -c 2 -a 0 -i 0 -k MAC
r -t 0.006740690 -s 19 -d -1 -p AOMDV -e 52 -c 2 -a 0 -i 0 -k MAC
r -t 0.006740756 -s 0 -d -1 -p AOMDV -e 52 -c 2 -a 0 -i 0 -k MAC
r -t 0.006740765 -s 20 -d -1 -p AOMDV -e 52 -c 2 -a 0 -i 0 -k MAC
r -t 0.006740931 -s 17 -d -1 -p AOMDV -e 52 -c 2 -a 0 -i 0 -k MAC
r -t 0.006740982 -s 10 -d -1 -p AOMDV -e 52 -c 2 -a 0 -i 0 -k MAC
r -t 0.006741004 -s 7 -d -1 -p AOMDV -e 52 -c 2 -a 0 -i 0 -k MAC
r -t 0.006741223 -s 16 -d -1 -p AOMDV -e 52 -c 2 -a 0 -i 0 -k MAC
r -t 0.006741241 -s 13 -d -1 -p AOMDV -e 52 -c 2 -a 0 -i 0 -k MAC
r -t 0.006741253 -s 6 -d -1 -p AOMDV -e 52 -c 2 -a 0 -i 0 -k MAC
r -t 0.006741254 -s 14 -d -1 -p AOMDV -e 52 -c 2 -a 0 -i 0 -k MAC
r -t 0.006741459 -s 5 -d -1 -p AOMDV -e 52 -c 2 -a 0 -i 0 -k MAC
r -t 0.006741485 -s 8 -d -1 -p AOMDV -e 52 -c 2 -a 0 -i 0 -k MAC
r -t 0.006741596 -s 15 -d -1 -p AOMDV -e 52 -c 2 -a 0 -i 0 -k MAC
r -t 0.006741687 -s 3 -d -1 -p AOMDV -e 52 -c 2 -a 0 -i 0 -k MAC
r -t 0.006741733 -s 4 -d -1 -p AOMDV -e 52 -c 2 -a 0 -i 0 -k MAC
r -t 0.006741867 -s 9 -d -1 -p AOMDV -e 52 -c 2 -a 0 -i 0 -k MAC
r -t 0.006742035 -s 2 -d -1 -p AOMDV -e 52 -c 2 -a 0 -i 0 -k MAC
r -t 0.006742179 -s 1 -d -1 -p AOMDV -e 52 -c 2 -a 0 -i 0 -k MAC
r -t 0.006765439 -s 21 -d -1 -p AOMDV -e 52 -c 2 -a 0 -i 0 -k RTR
r -t 0.006765486 -s 11 -d -1 -p AOMDV -e 52 -c 2 -a 0 -i 0 -k RTR
r -t 0.006765675 -s 12 -d -1 -p AOMDV -e 52 -c 2 -a 0 -i 0 -k RTR
r -t 0.006765690 -s 19 -d -1 -p AOMDV -e 52 -c 2 -a 0 -i 0 -k RTR
r -t 0.006765756 -s 0 -d -1 -p AOMDV -e 52 -c 2 -a 0 -i 0 -k RTR
r -t 0.006765765 -s 20 -d -1 -p AOMDV -e 52 -c 2 -a 0 -i 0 -k RTR
r -t 0.006765931 -s 17 -d -1 -p AOMDV -e 52 -c 2 -a 0 -i 0 -k RTR
+ -t 0.006765931 -s 17 -d 18 -p AOMDV -e 52 -c 2 -a 0 -i 0 -k RTR 
- -t 0.006765931 -s 17 -d 18 -p AOMDV -e 52 -c 2 -a 0 -i 0 -k RTR
h -t 0.006765931 -s 17 -d 18 -p AOMDV -e 52 -c 2 -a 0 -i 0 -k RTR
r -t 0.006765982 -s 10 -d -1 -p AOMDV -e 52 -c 2 -a 0 -i 0 -k RTR
r -t 0.006766004 -s 7 -d -1 -p AOMDV -e 52 -c 2 -a 0 -i 0 -k RTR
r -t 0.006766223 -s 16 -d -1 -p AOMDV -e 52 -c 2 -a 0 -i 0 -k RTR
r -t 0.006766241 -s 13 -d -1 -p AOMDV -e 52 -c 2 -a 0 -i 0 -k RTR
r -t 0.006766253 -s 6 -d -1 -p AOMDV -e 52 -c 2 -a 0 -i 0 -k RTR
r -t 0.006766254 -s 14 -d -1 -p AOMDV -e 52 -c 2 -a 0 -i 0 -k RTR
r -t 0.006766459 -s 5 -d -1 -p AOMDV -e 52 -c 2 -a 0 -i 0 -k RTR
r -t 0.006766485 -s 8 -d -1 -p AOMDV -e 52 -c 2 -a 0 -i 0 -k RTR
r -t 0.006766596 -s 15 -d -1 -p AOMDV -e 52 -c 2 -a 0 -i 0 -k RTR
r -t 0.006766687 -s 3 -d -1 -p AOMDV -e 52 -c 2 -a 0 -i 0 -k RTR
r -t 0.006766733 -s 4 -d -1 -p AOMDV -e 52 -c 2 -a 0 -i 0 -k RTR
r -t 0.006766867 -s 9 -d -1 -p AOMDV -e 52 -c 2 -a 0 -i 0 -k RTR
r -t 0.006767035 -s 2 -d -1 -p AOMDV -e 52 -c 2 -a 0 -i 0 -k RTR
r -t 0.006767179 -s 1 -d -1 -p AOMDV -e 52 -c 2 -a 0 -i 0 -k RTR
+ -t 0.006810439 -s 21 -d -1 -p AOMDV -e 110 -c 2 -a 0 -i 0 -k MAC 
- -t 0.006810439 -s 21 -d -1 -p AOMDV -e 110 -c 2 -a 0 -i 0 -k MAC
h -t 0.006810439 -s 21 -d -1 -p AOMDV -e 110 -c 2 -a 0 -i 0 -k MAC
+ -t 0.007025998 -s 15 -d -1 -p AOMDV -e 52 -c 2 -a 0 -i 0 -k RTR 
- -t 0.007025998 -s 15 -d -1 -p AOMDV -e 52 -c 2 -a 0 -i 0 -k RTR
h -t 0.007025998 -s 15 -d -1 -p AOMDV -e 52 -c 2 -a 0 -i 0 -k RTR
+ -t 0.007058553 -s 1 -d -1 -p AOMDV -e 52 -c 2 -a 0 -i 0 -k RTR 
- -t 0.007058553 -s 1 -d -1 -p AOMDV -e 52 -c 2 -a 0 -i 0 -k RTR
h -t 0.007058553 -s 1 -d -1 -p AOMDV -e 52 -c 2 -a 0 -i 0 -k RTR
+ -t 0.007194948 -s 19 -d -1 -p AOMDV -e 52 -c 2 -a 0 -i 0 -k RTR 
- -t 0.007194948 -s 19 -d -1 -p AOMDV -e 52 -c 2 -a 0 -i 0 -k RTR
h -t 0.007194948 -s 19 -d -1 -p AOMDV -e 52 -c 2 -a 0 -i 0 -k RTR
+ -t 0.007204880 -s 10 -d -1 -p AOMDV -e 52 -c 2 -a 0 -i 0 -k RTR 
- -t 0.007204880 -s 10 -d -1 -p AOMDV -e 52 -c 2 -a 0 -i 0 -k RTR
h -t 0.007204880 -s 10 -d -1 -p AOMDV -e 52 -c 2 -a 0 -i 0 -k RTR
+ -t 0.007410113 -s 13 -d -1 -p AOMDV -e 52 -c 2 -a 0 -i 0 -k RTR 
- -t 0.007410113 -s 13 -d -1 -p AOMDV -e 52 -c 2 -a 0 -i 0 -k RTR
h -t 0.007410113 -s 13 -d -1 -p AOMDV -e 52 -c 2 -a 0 -i 0 -k RTR
+ -t 0.007418121 -s 14 -d -1 -p AOMDV -e 52 -c 2 -a 0 -i 0 -k RTR 
- -t 0.007418121 -s 14 -d -1 -p AOMDV -e 52 -c 2 -a 0 -i 0 -k RTR
h -t 0.007418121 -s 14 -d -1 -p AOMDV -e 52 -c 2 -a 0 -i 0 -k RTR
r -t 0.007690884 -s 18 -d -1 -p AOMDV -e 52 -c 2 -a 0 -i 0 -k MAC
r -t 0.007691153 -s 20 -d -1 -p AOMDV -e 52 -c 2 -a 0 -i 0 -k MAC
r -t 0.007691194 -s 17 -d -1 -p AOMDV -e 52 -c 2 -a 0 -i 0 -k MAC
r -t 0.007691288 -s 11 -d -1 -p AOMDV -e 52 -c 2 -a 0 -i 0 -k MAC
r -t 0.007691303 -s 0 -d -1 -p AOMDV -e 52 -c 2 -a 0 -i 0 -k MAC
r -t 0.007691404 -s 19 -d -1 -p AOMDV -e 52 -c 2 -a 0 -i 0 -k MAC
r -t 0.007691477 -s 16 -d -1 -p AOMDV -e 52 -c 2 -a 0 -i 0 -k MAC
r -t 0.007691554 -s 12 -d -1 -p AOMDV -e 52 -c 2 -a 0 -i 0 -k MAC
r -t 0.007691680 -s 14 -d -1 -p AOMDV -e 52 -c 2 -a 0 -i 0 -k MAC
r -t 0.007691812 -s 7 -d -1 -p AOMDV -e 52 -c 2 -a 0 -i 0 -k MAC
r -t 0.007691856 -s 13 -d -1 -p AOMDV -e 52 -c 2 -a 0 -i 0 -k MAC
r -t 0.007691864 -s 10 -d -1 -p AOMDV -e 52 -c 2 -a 0 -i 0 -k MAC
r -t 0.007691924 -s 15 -d -1 -p AOMDV -e 52 -c 2 -a 0 -i 0 -k MAC
r -t 0.007691994 -s 6 -d -1 -p AOMDV -e 52 -c 2 -a 0 -i 0 -k MAC
r -t 0.007692019 -s 8 -d -1 -p AOMDV -e 52 -c 2 -a 0 -i 0 -k MAC
r -t 0.007692278 -s 5 -d -1 -p AOMDV -e 52 -c 2 -a 0 -i 0 -k MAC
r -t 0.007692330 -s 9 -d -1 -p AOMDV -e 52 -c 2 -a 0 -i 0 -k MAC
r -t 0.007692342 -s 3 -d -1 -p AOMDV -e 52 -c 2 -a 0 -i 0 -k MAC
r -t 0.007692489 -s 4 -d -1 -p AOMDV -e 52 -c 2 -a 0 -i 0 -k MAC
r -t 0.007692631 -s 2 -d -1 -p AOMDV -e 52 -c 2 -a 0 -i 0 -k MAC
r -t 0.007692873 -s 1 -d -1 -p AOMDV -e 52 -c 2 -a 0 -i 0 -k MAC
r -t 0.007715884 -s 18 -d -1 -p AOMDV -e 52 -c 2 -a 0 -i 0 -k RTR
r -t 0.007716153 -s 20 -d -1 -p AOMDV -e 52 -c 2 -a 0 -i 0 -k RTR
r -t 0.007716194 -s 17 -d -1 -p AOMDV -e 52 -c 2 -a 0 -i 0 -k RTR
+ -t 0.007716194 -s 17 -d 21 -p AOMDV -e 52 -c 2 -a 0 -i 0 -k RTR 
- -t 0.007716194 -s 17 -d 21 -p AOMDV -e 52 -c 2 -a 0 -i 0 -k RTR
h -t 0.007716194 -s 17 -d 21 -p AOMDV -e 52 -c 2 -a 0 -i 0 -k RTR
r -t 0.007716288 -s 11 -d -1 -p AOMDV -e 52 -c 2 -a 0 -i 0 -k RTR
r -t 0.007716303 -s 0 -d -1 -p AOMDV -e 52 -c 2 -a 0 -i 0 -k RTR
r -t 0.007716404 -s 19 -d -1 -p AOMDV -e 52 -c 2 -a 0 -i 0 -k RTR
r -t 0.007716477 -s 16 -d -1 -p AOMDV -e 52 -c 2 -a 0 -i 0 -k RTR
r -t 0.007716554 -s 12 -d -1 -p AOMDV -e 52 -c 2 -a 0 -i 0 -k RTR
r -t 0.007716680 -s 14 -d -1 -p AOMDV -e 52 -c 2 -a 0 -i 0 -k RTR
r -t 0.007716812 -s 7 -d -1 -p AOMDV -e 52 -c 2 -a 0 -i 0 -k RTR
r -t 0.007716856 -s 13 -d -1 -p AOMDV -e 52 -c 2 -a 0 -i 0 -k RTR
r -t 0.007716864 -s 10 -d -1 -p AOMDV -e 52 -c 2 -a 0 -i 0 -k RTR
r -t 0.007716924 -s 15 -d -1 -p AOMDV -e 52 -c 2 -a 0 -i 0 -k RTR
r -t 0.007716994 -s 6 -d -1 -p AOMDV -e 52 -c 2 -a 0 -i 0 -k RTR
r -t 0.007717019 -s 8 -d -1 -p AOMDV -e 52 -c 2 -a 0 -i 0 -k RTR
r -t 0.007717278 -s 5 -d -1 -p AOMDV -e 52 -c 2 -a 0 -i 0 -k RTR
r -t 0.007717330 -s 9 -d -1 -p AOMDV -e 52 -c 2 -a 0 -i 0 -k RTR
r -t 0.007717342 -s 3 -d -1 -p AOMDV -e 52 -c 2 -a 0 -i 0 -k RTR
r -t 0.007717489 -s 4 -d -1 -p AOMDV -e 52 -c 2 -a 0 -i 0 -k RTR
r -t 0.007717631 -s 2 -d -1 -p AOMDV -e 52 -c 2 -a 0 -i 0 -k RTR
r -t 0.007717873 -s 1 -d -1 -p AOMDV -e 52 -c 2 -a 0 -i 0 -k RTR
+ -t 0.007762019 -s 8 -d -1 -p AOMDV -e 110 -c 2 -a 0 -i 0 -k MAC 
- -t 0.007762019 -s 8 -d -1 -p AOMDV -e 110 -c 2 -a 0 -i 0 -k MAC
h -t 0.007762019 -s 8 -d -1 -p AOMDV -e 110 -c 2 -a 0 -i 0 -k MAC
+ -t 0.008480475 -s 4 -d -1 -p AOMDV -e 52 -c 2 -a 0 -i 0 -k RTR 
- -t 0.008480475 -s 4 -d -1 -p AOMDV -e 52 -c 2 -a 0 -i 0 -k RTR
h -t 0.008480475 -s 4 -d -1 -p AOMDV -e 52 -c 2 -a 0 -i 0 -k RTR
r -t 0.008642359 -s 13 -d -1 -p AOMDV -e 52 -c 2 -a 0 -i 0 -k MAC
r -t 0.008642464 -s 9 -d -1 -p AOMDV -e 52 -c 2 -a 0 -i 0 -k MAC
r -t 0.008642465 -s 14 -d -1 -p AOMDV -e 52 -c 2 -a 0 -i 0 -k MAC
r -t 0.008642564 -s 3 -d -1 -p AOMDV -e 52 -c 2 -a 0 -i 0 -k MAC
r -t 0.008642659 -s 2 -d -1 -p AOMDV -e 52 -c 2 -a 0 -i 0 -k MAC
r -t 0.008642731 -s 15 -d -1 -p AOMDV -e 52 -c 2 -a 0 -i 0 -k MAC
r -t 0.008642757 -s 0 -d -1 -p AOMDV -e 52 -c 2 -a 0 -i 0 -k MAC
r -t 0.008642790 -s 6 -d -1 -p AOMDV -e 52 -c 2 -a 0 -i 0 -k MAC
r -t 0.008642951 -s 16 -d -1 -p AOMDV -e 52 -c 2 -a 0 -i 0 -k MAC
r -t 0.008643008 -s 17 -d -1 -p AOMDV -e 52 -c 2 -a 0 -i 0 -k MAC
r -t 0.008643044 -s 4 -d -1 -p AOMDV -e 52 -c 2 -a 0 -i 0 -k MAC
r -t 0.008643064 -s 7 -d -1 -p AOMDV -e 52 -c 2 -a 0 -i 0 -k MAC
r -t 0.008643087 -s 1 -d -1 -p AOMDV -e 52 -c 2 -a 0 -i 0 -k MAC
r -t 0.008643154 -s 11 -d -1 -p AOMDV -e 52 -c 2 -a 0 -i 0 -k MAC
r -t 0.008643255 -s 5 -d -1 -p AOMDV -e 52 -c 2 -a 0 -i 0 -k MAC
r -t 0.008643511 -s 18 -d -1 -p AOMDV -e 52 -c 2 -a 0 -i 0 -k MAC
r -t 0.008643551 -s 10 -d -1 -p AOMDV -e 52 -c 2 -a 0 -i 0 -k MAC
r -t 0.008643599 -s 21 -d -1 -p AOMDV -e 52 -c 2 -a 0 -i 0 -k MAC
r -t 0.008643801 -s 12 -d -1 -p AOMDV -e 52 -c 2 -a 0 -i 0 -k MAC
r -t 0.008644155 -s 19 -d -1 -p AOMDV -e 52 -c 2 -a 0 -i 0 -k MAC
r -t 0.008644248 -s 20 -d -1 -p AOMDV -e 52 -c 2 -a 0 -i 0 -k MAC
r -t 0.008667359 -s 13 -d -1 -p AOMDV -e 52 -c 2 -a 0 -i 0 -k RTR
r -t 0.008667464 -s 9 -d -1 -p AOMDV -e 52 -c 2 -a 0 -i 0 -k RTR
r -t 0.008667465 -s 14 -d -1 -p AOMDV -e 52 -c 2 -a 0 -i 0 -k RTR
r -t 0.008667564 -s 3 -d -1 -p AOMDV -e 52 -c 2 -a 0 -i 0 -k RTR
r -t 0.008667659 -s 2 -d -1 -p AOMDV -e 52 -c 2 -a 0 -i 0 -k RTR
r -t 0.008667731 -s 15 -d -1 -p AOMDV -e 52 -c 2 -a 0 -i 0 -k RTR
r -t 0.008667757 -s 0 -d -1 -p AOMDV -e 52 -c 2 -a 0 -i 0 -k RTR
r -t 0.008667790 -s 6 -d -1 -p AOMDV -e 52 -c 2 -a 0 -i 0 -k RTR
r -t 0.008667951 -s 16 -d -1 -p AOMDV -e 52 -c 2 -a 0 -i 0 -k RTR
r -t 0.008668008 -s 17 -d -1 -p AOMDV -e 52 -c 2 -a 0 -i 0 -k RTR
+ -t 0.008668008 -s 17 -d 8 -p AOMDV -e 52 -c 2 -a 0 -i 0 -k RTR 
- -t 0.008668008 -s 17 -d 8 -p AOMDV -e 52 -c 2 -a 0 -i 0 -k RTR
h -t 0.008668008 -s 17 -d 8 -p AOMDV -e 52 -c 2 -a 0 -i 0 -k RTR
r -t 0.008668044 -s 4 -d -1 -p AOMDV -e 52 -c 2 -a 0 -i 0 -k RTR
r -t 0.008668064 -s 7 -d -1 -p AOMDV -e 52 -c 2 -a 0 -i 0 -k RTR
r -t 0.008668087 -s 1 -d -1 -p AOMDV -e 52 -c 2 -a 0 -i 0 -k RTR
r -t 0.008668154 -s 11 -d -1 -p AOMDV -e 52 -c 2 -a 0 -i 0 -k RTR
r -t 0.008668255 -s 5 -d -1 -p AOMDV -e 52 -c 2 -a 0 -i 0 -k RTR
r -t 0.008668511 -s 18 -d -1 -p AOMDV -e 52 -c 2 -a 0 -i 0 -k RTR
r -t 0.008668551 -s 10 -d -1 -p AOMDV -e 52 -c 2 -a 0 -i 0 -k RTR
r -t 0.008668599 -s 21 -d -1 -p AOMDV -e 52 -c 2 -a 0 -i 0 -k RTR
r -t 0.008668801 -s 12 -d -1 -p AOMDV -e 52 -c 2 -a 0 -i 0 -k RTR
r -t 0.008669155 -s 19 -d -1 -p AOMDV -e 52 -c 2 -a 0 -i 0 -k RTR
r -t 0.008669248 -s 20 -d -1 -p AOMDV -e 52 -c 2 -a 0 -i 0 -k RTR
+ -t 0.008712731 -s 15 -d -1 -p AOMDV -e 110 -c 2 -a 0 -i 0 -k MAC 
- -t 0.008712731 -s 15 -d -1 -p AOMDV -e 110 -c 2 -a 0 -i 0 -k MAC
h -t 0.008712731 -s 15 -d -1 -p AOMDV -e 110 -c 2 -a 0 -i 0 -k MAC
+ -t 0.008714248 -s 20 -d -1 -p AOMDV -e 110 -c 2 -a 0 -i 0 -k MAC 
- -t 0.008714248 -s 20 -d -1 -p AOMDV -e 110 -c 2 -a 0 -i 0 -k MAC
h -t 0.008714248 -s 20 -d -1 -p AOMDV -e 110 -c 2 -a 0 -i 0 -k MAC
d -t 0.008714962 -s 21 -d -1 -p AOMDV -e 110 -c 2 -a 0 -i 0 -k MAC
d -t 0.008715019 -s 18 -d -1 -p AOMDV -e 110 -c 2 -a 0 -i 0 -k MAC
d -t 0.008715340 -s 12 -d -1 -p AOMDV -e 110 -c 2 -a 0 -i 0 -k MAC
d -t 0.008715500 -s 11 -d -1 -p AOMDV -e 110 -c 2 -a 0 -i 0 -k MAC
d -t 0.008715739 -s 0 -d -1 -p AOMDV -e 110 -c 2 -a 0 -i 0 -k MAC
d -t 0.008715832 -s 10 -d -1 -p AOMDV -e 110 -c 2 -a 0 -i 0 -k MAC
d -t 0.008715994 -s 7 -d -1 -p AOMDV -e 110 -c 2 -a 0 -i 0 -k MAC
d -t 0.008716271 -s 6 -d -1 -p AOMDV -e 110 -c 2 -a 0 -i 0 -k MAC
d -t 0.008716423 -s 5 -d -1 -p AOMDV -e 110 -c 2 -a 0 -i 0 -k MAC
d -t 0.008716741 -s 4 -d -1 -p AOMDV -e 110 -c 2 -a 0 -i 0 -k MAC
d -t 0.008717203 -s 1 -d -1 -p AOMDV -e 110 -c 2 -a 0 -i 0 -k MAC
+ -t 0.009473717 -s 3 -d -1 -p AOMDV -e 52 -c 2 -a 0 -i 0 -k RTR 
- -t 0.009473717 -s 3 -d -1 -p AOMDV -e 52 -c 2 -a 0 -i 0 -k RTR
h -t 0.009473717 -s 3 -d -1 -p AOMDV -e 52 -c 2 -a 0 -i 0 -k RTR
r -t 0.009593158 -s 14 -d -1 -p AOMDV -e 52 -c 2 -a 0 -i 0 -k MAC
r -t 0.009593209 -s 16 -d -1 -p AOMDV -e 52 -c 2 -a 0 -i 0 -k MAC
r -t 0.009593350 -s 9 -d -1 -p AOMDV -e 52 -c 2 -a 0 -i 0 -k MAC