s 0.000000000 _0_ AGT  --- 0 cbr 1000 [0 0 0 0] ------- [0:0 17:0 32 0] [0] 0 0
r 0.000000000 _0_ RTR  --- 0 cbr 1000 [0 0 0 0] ------- [0:0 17:0 32 0] [0] 0 0
v 0 eval {set sim_annotation {MOBILE NODE MOVEMENTS}}
s 0.000000000 _0_ RTR  --- 0 AOMDV 52 [0 0 0 0] ------- [0:255 -1:255 30 0] [0x2 0 1 [17 0] [0 4]] (REQUEST)
s 0.000155000 _0_ MAC  --- 0 AOMDV 110 [0 ffffffff 0 800] ------- [0:255 -1:255 30 0] [0x2 0 1 [17 0] [0 4]] (REQUEST)
r 0.001035520 _11_ MAC  --- 0 AOMDV 52 [0 ffffffff 0 800] ------- [0:255 -1:255 30 0] [0x2 0 1 [17 0] [0 4]] (REQUEST)
r 0.001035527 _14_ MAC  --- 0 AOMDV 52 [0 ffffffff 0 800] ------- [0:255 -1:255 30 0] [0x2 0 1 [17 0] [0 4]] (REQUEST)
r 0.001035533 _17_ MAC  --- 0 AOMDV 52 [0 ffffffff 0 800] ------- [0:255 -1:255 30 0] [0x2 0 1 [17 0] [0 4]] (REQUEST)
r 0.001035555 _13_ MAC  --- 0 AOMDV 52 [0 ffffffff 0 800] ------- [0:255 -1:255 30 0] [0x2 0 1 [17 0] [0 4]] (REQUEST)
r 0.001035717 _16_ MAC  --- 0 AOMDV 52 [0 ffffffff 0 800] ------- [0:255 -1:255 30 0] [0x2 0 1 [17 0] [0 4]] (REQUEST)
r 0.001035737 _8_ MAC  --- 0 AOMDV 52 [0 ffffffff 0 800] ------- [0:255 -1:255 30 0] [0x2 0 1 [17 0] [0 4]] (REQUEST)
r 0.001035762 _18_ MAC  --- 0 AOMDV 52 [0 ffffffff 0 800] ------- [0:255 -1:255 30 0] [0x2 0 1 [17 0] [0 4]] (REQUEST)
r 0.001035786 _7_ MAC  --- 0 AOMDV 52 [0 ffffffff 0 800] ------- [0:255 -1:255 30 0] [0x2 0 1 [17 0] [0 4]] (REQUEST)
r 0.001035797 _6_ MAC  --- 0 AOMDV 52 [0 ffffffff 0 800] ------- [0:255 -1:255 30 0] [0x2 0 1 [17 0] [0 4]] (REQUEST)
r 0.001035865 _21_ MAC  --- 0 AOMDV 52 [0 ffffffff 0 800] ------- [0:255 -1:255 30 0] [0x2 0 1 [17 0] [0 4]] (REQUEST)
r 0.001035927 _15_ MAC  --- 0 AOMDV 52 [0 ffffffff 0 800] ------- [0:255 -1:255 30 0] [0x2 0 1 [17 0] [0 4]] (REQUEST)
r 0.001036047 _3_ MAC  --- 0 AOMDV 52 [0 ffffffff 0 800] ------- [0:255 -1:255 30 0] [0x2 0 1 [17 0] [0 4]] (REQUEST)
r 0.001036112 _9_ MAC  --- 0 AOMDV 52 [0 ffffffff 0 800] ------- [0:255 -1:255 30 0] [0x2 0 1 [17 0] [0 4]] (REQUEST)
r 0.001036128 _10_ MAC  --- 0 AOMDV 52 [0 ffffffff 0 800] ------- [0:255 -1:255 30 0] [0x2 0 1 [17 0] [0 4]] (REQUEST)
r 0.001036182 _12_ MAC  --- 0 AOMDV 52 [0 ffffffff 0 800] ------- [0:255 -1:255 30 0] [0x2 0 1 [17 0] [0 4]] (REQUEST)
r 0.001036207 _5_ MAC  --- 0 AOMDV 52 [0 ffffffff 0 800] ------- [0:255 -1:255 30 0] [0x2 0 1 [17 0] [0 4]] (REQUEST)
r 0.001036278 _4_ MAC  --- 0 AOMDV 52 [0 ffffffff 0 800] ------- [0:255 -1:255 30 0] [0x2 0 1 [17 0] [0 4]] (REQUEST)
r 0.001036330 _2_ MAC  --- 0 AOMDV 52 [0 ffffffff 0 800] ------- [0:255 -1:255 30 0] [0x2 0 1 [17 0] [0 4]] (REQUEST)
r 0.001036435 _19_ MAC  --- 0 AOMDV 52 [0 ffffffff 0 800] ------- [0:255 -1:255 30 0] [0x2 0 1 [17 0] [0 4]] (REQUEST)
r 0.001036491 _20_ MAC  --- 0 AOMDV 52 [0 ffffffff 0 800] ------- [0:255 -1:255 30 0] [0x2 0 1 [17 0] [0 4]] (REQUEST)
r 0.001036591 _1_ MAC  --- 0 AOMDV 52 [0 ffffffff 0 800] ------- [0:255 -1:255 30 0] [0x2 0 1 [17 0] [0 4]] (REQUEST)
r 0.001060520 _11_ RTR  --- 0 AOMDV 52 [0 ffffffff 0 800] ------- [0:255 -1:255 30 0] [0x2 0 1 [17 0] [0 4]] (REQUEST)
r 0.001060527 _14_ RTR  --- 0 AOMDV 52 [0 ffffffff 0 800] ------- [0:255 -1:255 30 0] [0x2 0 1 [17 0] [0 4]] (REQUEST)
r 0.001060533 _17_ RTR  --- 0 AOMDV 52 [0 ffffffff 0 800] ------- [0:255 -1:255 30 0] [0x2 0 1 [17 0] [0 4]] (REQUEST)
s 0.001060533 _17_ RTR  --- 0 AOMDV 52 [0 0 0 0] ------- [17:255 0:255 30 0] [0x4 0 [17 2] 10.000000] (REPLY) [1 0]
r 0.001060555 _13_ RTR  --- 0 AOMDV 52 [0 ffffffff 0 800] ------- [0:255 -1:255 30 0] [0x2 0 1 [17 0] [0 4]] (REQUEST)
r 0.001060717 _16_ RTR  --- 0 AOMDV 52 [0 ffffffff 0 800] ------- [0:255 -1:255 30 0] [0x2 0 1 [17 0] [0 4]] (REQUEST)
r 0.001060737 _8_ RTR  --- 0 AOMDV 52 [0 ffffffff 0 800] ------- [0:255 -1:255 30 0] [0x2 0 1 [17 0] [0 4]] (REQUEST)
r 0.001060762 _18_ RTR  --- 0 AOMDV 52 [0 ffffffff 0 800] ------- [0:255 -1:255 30 0] [0x2 0 1 [17 0] [0 4]] (REQUEST)
r 0.001060786 _7_ RTR  --- 0 AOMDV 52 [0 ffffffff 0 800] ------- [0:255 -1:255 30 0] [0x2 0 1 [17 0] [0 4]] (REQUEST)
r 0.001060797 _6_ RTR  --- 0 AOMDV 52 [0 ffffffff 0 800] ------- [0:255 -1:255 30 0] [0x2 0 1 [17 0] [0 4]] (REQUEST)
r 0.001060865 _21_ RTR  --- 0 AOMDV 52 [0 ffffffff 0 800] ------- [0:255 -1:255 30 0] [0x2 0 1 [17 0] [0 4]] (REQUEST)
r 0.001060927 _15_ RTR  --- 0 AOMDV 52 [0 ffffffff 0 800] ------- [0:255 -1:255 30 0] [0x2 0 1 [17 0] [0 4]] (REQUEST)
r 0.001061047 _3_ RTR  --- 0 AOMDV 52 [0 ffffffff 0 800] ------- [0:255 -1:255 30 0] [0x2 0 1 [17 0] [0 4]] (REQUEST)
r 0.001061112 _9_ RTR  --- 0 AOMDV 52 [0 ffffffff 0 800] ------- [0:255 -1:255 30 0] [0x2 0 1 [17 0] [0 4]] (REQUEST)
r 0.001061128 _10_ RTR  --- 0 AOMDV 52 [0 ffffffff 0 800] ------- [0:255 -1:255 30 0] [0x2 0 1 [17 0] [0 4]] (REQUEST)
r 0.001061182 _12_ RTR  --- 0 AOMDV 52 [0 ffffffff 0 800] ------- [0:255 -1:255 30 0] [0x2 0 1 [17 0] [0 4]] (REQUEST)
r 0.001061207 _5_ RTR  --- 0 AOMDV 52 [0 ffffffff 0 800] ------- [0:255 -1:255 30 0] [0x2 0 1 [17 0] [0 4]] (REQUEST)
r 0.001061278 _4_ RTR  --- 0 AOMDV 52 [0 ffffffff 0 800] ------- [0:255 -1:255 30 0] [0x2 0 1 [17 0] [0 4]] (REQUEST)
r 0.001061330 _2_ RTR  --- 0 AOMDV 52 [0 ffffffff 0 800] ------- [0:255 -1:255 30 0] [0x2 0 1 [17 0] [0 4]] (REQUEST)
r 0.001061435 _19_ RTR  --- 0 AOMDV 52 [0 ffffffff 0 800] ------- [0:255 -1:255 30 0] [0x2 0 1 [17 0] [0 4]] (REQUEST)
r 0.001061491 _20_ RTR  --- 0 AOMDV 52 [0 ffffffff 0 800] ------- [0:255 -1:255 30 0] [0x2 0 1 [17 0] [0 4]] (REQUEST)
r 0.001061591 _1_ RTR  --- 0 AOMDV 52 [0 ffffffff 0 800] ------- [0:255 -1:255 30 0] [0x2 0 1 [17 0] [0 4]] (REQUEST)
s 0.001224694 _7_ RTR  --- 0 AOMDV 52 [0 ffffffff 0 800] ------- [7:255 -1:255 29 0] [0x2 1 1 [17 0] [0 4]] (REQUEST)
s 0.001574362 _5_ RTR  --- 0 AOMDV 52 [0 ffffffff 0 800] ------- [5:255 -1:255 29 0] [0x2 1 1 [17 0] [0 4]] (REQUEST)
s 0.001615533 _17_ MAC  --- 0 ARP 86 [0 ffffffff 11 806] ------- [REQUEST 17/17 0/0]
s 0.001976027 _21_ RTR  --- 0 AOMDV 52 [0 ffffffff 0 800] ------- [21:255 -1:255 29 0] [0x2 1 1 [17 0] [0 4]] (REQUEST)
r 0.002303827 _16_ MAC  --- 0 ARP 28 [0 ffffffff 11 806] ------- [REQUEST 17/17 0/0]
r 0.002304066 _0_ MAC  --- 0 ARP 28 [0 ffffffff 11 806] ------- [REQUEST 17/17 0/0]
r 0.002304097 _14_ MAC  --- 0 ARP 28 [0 ffffffff 11 806] ------- [REQUEST 17/17 0/0]
r 0.002304264 _15_ MAC  --- 0 ARP 28 [0 ffffffff 11 806] ------- [REQUEST 17/17 0/0]
r 0.002304289 _21_ MAC  --- 0 ARP 28 [0 ffffffff 11 806] ------- [REQUEST 17/17 0/0]
r 0.002304471 _18_ MAC  --- 0 ARP 28 [0 ffffffff 11 806] ------- [REQUEST 17/17 0/0]
r 0.002304491 _11_ MAC  --- 0 ARP 28 [0 ffffffff 11 806] ------- [REQUEST 17/17 0/0]
r 0.002304507 _13_ MAC  --- 0 ARP 28 [0 ffffffff 11 806] ------- [REQUEST 17/17 0/0]
r 0.002304522 _8_ MAC  --- 0 ARP 28 [0 ffffffff 11 806] ------- [REQUEST 17/17 0/0]
r 0.002304731 _9_ MAC  --- 0 ARP 28 [0 ffffffff 11 806] ------- [REQUEST 17/17 0/0]
r 0.002304846 _6_ MAC  --- 0 ARP 28 [0 ffffffff 11 806] ------- [REQUEST 17/17 0/0]
r 0.002304849 _7_ MAC  --- 0 ARP 28 [0 ffffffff 11 806] ------- [REQUEST 17/17 0/0]
r 0.002304984 _3_ MAC  --- 0 ARP 28 [0 ffffffff 11 806] ------- [REQUEST 17/17 0/0]
r 0.002305003 _20_ MAC  --- 0 ARP 28 [0 ffffffff 11 806] ------- [REQUEST 17/17 0/0]
r 0.002305076 _12_ MAC  --- 0 ARP 28 [0 ffffffff 11 806] ------- [REQUEST 17/17 0/0]
r 0.002305146 _10_ MAC  --- 0 ARP 28 [0 ffffffff 11 806] ------- [REQUEST 17/17 0/0]
r 0.002305156 _19_ MAC  --- 0 ARP 28 [0 ffffffff 11 806] ------- [REQUEST 17/17 0/0]
r 0.002305162 _2_ MAC  --- 0 ARP 28 [0 ffffffff 11 806] ------- [REQUEST 17/17 0/0]
r 0.002305272 _5_ MAC  --- 0 ARP 28 [0 ffffffff 11 806] ------- [REQUEST 17/17 0/0]
r 0.002305306 _4_ MAC  --- 0 ARP 28 [0 ffffffff 11 806] ------- [REQUEST 17/17 0/0]
r 0.002305539 _1_ MAC  --- 0 ARP 28 [0 ffffffff 11 806] ------- [REQUEST 17/17 0/0]
s 0.002555272 _5_ MAC  --- 0 AOMDV 110 [0 ffffffff 5 800] ------- [5:255 -1:255 29 0] [0x2 1 1 [17 0] [0 4]] (REQUEST)
r 0.003435737 _4_ MAC  --- 0 AOMDV 52 [0 ffffffff 5 800] ------- [5:255 -1:255 29 0] [0x2 1 1 [17 0] [0 4]] (REQUEST)
r 0.003435739 _7_ MAC  --- 0 AOMDV 52 [0 ffffffff 5 800] ------- [5:255 -1:255 29 0] [0x2 1 1 [17 0] [0 4]] (REQUEST)
r 0.003435751 _6_ MAC  --- 0 AOMDV 52 [0 ffffffff 5 800] ------- [5:255 -1:255 29 0] [0x2 1 1 [17 0] [0 4]] (REQUEST)
r 0.003435960 _10_ MAC  --- 0 AOMDV 52 [0 ffffffff 5 800] ------- [5:255 -1:255 29 0] [0x2 1 1 [17 0] [0 4]] (REQUEST)
r 0.003436148 _3_ MAC  --- 0 AOMDV 52 [0 ffffffff 5 800] ------- [5:255 -1:255 29 0] [0x2 1 1 [17 0] [0 4]] (REQUEST)
r 0.003436210 _13_ MAC  --- 0 AOMDV 52 [0 ffffffff 5 800] ------- [5:255 -1:255 29 0] [0x2 1 1 [17 0] [0 4]] (REQUEST)
r 0.003436263 _11_ MAC  --- 0 AOMDV 52 [0 ffffffff 5 800] ------- [5:255 -1:255 29 0] [0x2 1 1 [17 0] [0 4]] (REQUEST)
r 0.003436296 _1_ MAC  --- 0 AOMDV 52 [0 ffffffff 5 800] ------- [5:255 -1:255 29 0] [0x2 1 1 [17 0] [0 4]] (REQUEST)
r 0.003436475 _12_ MAC  --- 0 AOMDV 52 [0 ffffffff 5 800] ------- [5:255 -1:255 29 0] [0x2 1 1 [17 0] [0 4]] (REQUEST)
r 0.003436479 _0_ MAC  --- 0 AOMDV 52 [0 ffffffff 5 800] ------- [5:255 -1:255 29 0] [0x2 1 1 [17 0] [0 4]] (REQUEST)
r 0.003436508 _8_ MAC  --- 0 AOMDV 52 [0 ffffffff 5 800] ------- [5:255 -1:255 29 0] [0x2 1 1 [17 0] [0 4]] (REQUEST)
r 0.003436555 _2_ MAC  --- 0 AOMDV 52 [0 ffffffff 5 800] ------- [5:255 -1:255 29 0] [0x2 1 1 [17 0] [0 4]] (REQUEST)
r 0.003436737 _18_ MAC  --- 0 AOMDV 52 [0 ffffffff 5 800] ------- [5:255 -1:255 29 0] [0x2 1 1 [17 0] [0 4]] (REQUEST)
r 0.003436755 _14_ MAC  --- 0 AOMDV 52 [0 ffffffff 5 800] ------- [5:255 -1:255 29 0] [0x2 1 1 [17 0] [0 4]] (REQUEST)
r 0.003436911 _9_ MAC  --- 0 AOMDV 52 [0 ffffffff 5 800] ------- [5:255 -1:255 29 0] [0x2 1 1 [17 0] [0 4]] (REQUEST)
r 0.003437011 _17_ MAC  --- 0 AOMDV 52 [0 ffffffff 5 800] ------- [5:255 -1:255 29 0] [0x2 1 1 [17 0] [0 4]] (REQUEST)
r 0.003437037 _19_ MAC  --- 0 AOMDV 52 [0 ffffffff 5 800] ------- [5:255 -1:255 29 0] [0x2 1 1 [17 0] [0 4]] (REQUEST)
r 0.003437111 _21_ MAC  --- 0 AOMDV 52 [0 ffffffff 5 800] ------- [5:255 -1:255 29 0] [0x2 1 1 [17 0] [0 4]] (REQUEST)
r 0.003437151 _16_ MAC  --- 0 AOMDV 52 [0 ffffffff 5 800] ------- [5:255 -1:255 29 0] [0x2 1 1 [17 0] [0 4]] (REQUEST)
r 0.003437158 _15_ MAC  --- 0 AOMDV 52 [0 ffffffff 5 800] ------- [5:255 -1:255 29 0] [0x2 1 1 [17 0] [0 4]] (REQUEST)
r 0.003437447 _20_ MAC  --- 0 AOMDV 52 [0 ffffffff 5 800] ------- [5:255 -1:255 29 0] [0x2 1 1 [17 0] [0 4]] (REQUEST)
s 0.003454054 _18_ RTR  --- 0 AOMDV 52 [0 ffffffff 0 800] ------- [18:255 -1:255 29 0] [0x2 1 1 [17 0] [0 4]] (REQUEST)
r 0.003460737 _4_ RTR  --- 0 AOMDV 52 [0 ffffffff 5 800] ------- [5:255 -1:255 29 0] [0x2 1 1 [17 0] [0 4]] (REQUEST)
r 0.003460739 _7_ RTR  --- 0 AOMDV 52 [0 ffffffff 5 800] ------- [5:255 -1:255 29 0] [0x2 1 1 [17 0] [0 4]] (REQUEST)
r 0.003460751 _6_ RTR  --- 0 AOMDV 52 [0 ffffffff 5 800] ------- [5:255 -1:255 29 0] [0x2 1 1 [17 0] [0 4]] (REQUEST)
r 0.003460960 _10_ RTR  --- 0 AOMDV 52 [0 ffffffff 5 800] ------- [5:255 -1:255 29 0] [0x2 1 1 [17 0] [0 4]] (REQUEST)
r 0.003461148 _3_ RTR  --- 0 AOMDV 52 [0 ffffffff 5 800] ------- [5:255 -1:255 29 0] [0x2 1 1 [17 0] [0 4]] (REQUEST)
r 0.003461210 _13_ RTR  --- 0 AOMDV 52 [0 ffffffff 5 800] ------- [5:255 -1:255 29 0] [0x2 1 1 [17 0] [0 4]] (REQUEST)
r 0.003461263 _11_ RTR  --- 0 AOMDV 52 [0 ffffffff 5 800] ------- [5:255 -1:255 29 0] [0x2 1 1 [17 0] [0 4]] (REQUEST)
r 0.003461296 _1_ RTR  --- 0 AOMDV 52 [0 ffffffff 5 800] ------- [5:255 -1:255 29 0] [0x2 1 1 [17 0] [0 4]] (REQUEST)
r 0.003461475 _12_ RTR  --- 0 AOMDV 52 [0 ffffffff 5 800] ------- [5:255 -1:255 29 0] [0x2 1 1 [17 0] [0 4]] (REQUEST)
r 0.003461479 _0_ RTR  --- 0 AOMDV 52 [0 ffffffff 5 800] ------- [5:255 -1:255 29 0] [0x2 1 1 [17 0] [0 4]] (REQUEST)
r 0.003461508 _8_ RTR  --- 0 AOMDV 52 [0 ffffffff 5 800] ------- [5:255 -1:255 29 0] [0x2 1 1 [17 0] [0 4]] (REQUEST)
r 0.003461555 _2_ RTR  --- 0 AOMDV 52 [0 ffffffff 5 800] ------- [5:255 -1:255 29 0] [0x2 1 1 [17 0] [0 4]] (REQUEST)
r 0.003461737 _18_ RTR  --- 0 AOMDV 52 [0 ffffffff 5 800] ------- [5:255 -1:255 29 0] [0x2 1 1 [17 0] [0 4]] (REQUEST)
r 0.003461755 _14_ RTR  --- 0 AOMDV 52 [0 ffffffff 5 800] ------- [5:255 -1:255 29 0] [0x2 1 1 [17 0] [0 4]] (REQUEST)
r 0.003461911 _9_ RTR  --- 0 AOMDV 52 [0 ffffffff 5 800] ------- [5:255 -1:255 29 0] [0x2 1 1 [17 0] [0 4]] (REQUEST)
r 0.003462011 _17_ RTR  --- 0 AOMDV 52 [0 ffffffff 5 800] ------- [5:255 -1:255 29 0] [0x2 1 1 [17 0] [0 4]] (REQUEST)
s 0.003462011 _17_ RTR  --- 0 AOMDV 52 [0 0 0 0] ------- [17:255 0:255 30 5] [0x4 0 [17 2] 10.000000] (REPLY) [1 5]
r 0.003462037 _19_ RTR  --- 0 AOMDV 52 [0 ffffffff 5 800] ------- [5:255 -1:255 29 0] [0x2 1 1 [17 0] [0 4]] (REQUEST)
r 0.003462111 _21_ RTR  --- 0 AOMDV 52 [0 ffffffff 5 800] ------- [5:255 -1:255 29 0] [0x2 1 1 [17 0] [0 4]] (REQUEST)
r 0.003462151 _16_ RTR  --- 0 AOMDV 52 [0 ffffffff 5 800] ------- [5:255 -1:255 29 0] [0x2 1 1 [17 0] [0 4]] (REQUEST)
r 0.003462158 _15_ RTR  --- 0 AOMDV 52 [0 ffffffff 5 800] ------- [5:255 -1:255 29 0] [0x2 1 1 [17 0] [0 4]] (REQUEST)
r 0.003462447 _20_ RTR  --- 0 AOMDV 52 [0 ffffffff 5 800] ------- [5:255 -1:255 29 0] [0x2 1 1 [17 0] [0 4]] (REQUEST)
s 0.003565739 _7_ MAC  --- 0 AOMDV 110 [0 ffffffff 7 800] ------- [7:255 -1:255 29 0] [0x2 1 1 [17 0] [0 4]] (REQUEST)
s 0.003566479 _0_ MAC  --- 0 RTS 44 [52e 11 0 0] 
r 0.003919012 _17_ MAC  --- 0 RTS 44 [52e 11 0 0] 
r 0.004446099 _6_ MAC  --- 0 AOMDV 52 [0 ffffffff 7 800] ------- [7:255 -1:255 29 0] [0x2 1 1 [17 0] [0 4]] (REQUEST)
r 0.004446206 _5_ MAC  --- 0 AOMDV 52 [0 ffffffff 7 800] ------- [7:255 -1:255 29 0] [0x2 1 1 [17 0] [0 4]] (REQUEST)
r 0.004446237 _10_ MAC  --- 0 AOMDV 52 [0 ffffffff 7 800] ------- [7:255 -1:255 29 0] [0x2 1 1 [17 0] [0 4]] (REQUEST)
D 0.004446266 _11_ MAC  COL 0 AOMDV 110 [0 ffffffff 7 800] ------- [7:255 -1:255 29 0] [0x2 1 1 [17 0] [0 4]] (REQUEST)
D 0.004446444 _13_ MAC  COL 0 AOMDV 110 [0 ffffffff 7 800] ------- [7:255 -1:255 29 0] [0x2 1 1 [17 0] [0 4]] (REQUEST)
D 0.004446494 _4_ MAC  COL 0 AOMDV 110 [0 ffffffff 7 800] ------- [7:255 -1:255 29 0] [0x2 1 1 [17 0] [0 4]] (REQUEST)
D 0.004446625 _12_ MAC  COL 0 AOMDV 110 [0 ffffffff 7 800] ------- [7:255 -1:255 29 0] [0x2 1 1 [17 0] [0 4]] (REQUEST)
D 0.004446642 _3_ MAC  COL 0 AOMDV 110 [0 ffffffff 7 800] ------- [7:255 -1:255 29 0] [0x2 1 1 [17 0] [0 4]] (REQUEST)
D 0.004446750 _18_ MAC  COL 0 AOMDV 110 [0 ffffffff 7 800] ------- [7:255 -1:255 29 0] [0x2 1 1 [17 0] [0 4]] (REQUEST)
D 0.004446784 _8_ MAC  COL 0 AOMDV 110 [0 ffffffff 7 800] ------- [7:255 -1:255 29 0] [0x2 1 1 [17 0] [0 4]] (REQUEST)
D 0.004446901 _14_ MAC  COL 0 AOMDV 110 [0 ffffffff 7 800] ------- [7:255 -1:255 29 0] [0x2 1 1 [17 0] [0 4]] (REQUEST)
D 0.004447007 _1_ MAC  COL 0 AOMDV 110 [0 ffffffff 7 800] ------- [7:255 -1:255 29 0] [0x2 1 1 [17 0] [0 4]] (REQUEST)
D 0.004447064 _2_ MAC  COL 0 AOMDV 110 [0 ffffffff 7 800] ------- [7:255 -1:255 29 0] [0x2 1 1 [17 0] [0 4]] (REQUEST)
D 0.004447112 _21_ MAC  COL 0 AOMDV 110 [0 ffffffff 7 800] ------- [7:255 -1:255 29 0] [0x2 1 1 [17 0] [0 4]] (REQUEST)
D 0.004447139 _19_ MAC  COL 0 AOMDV 110 [0 ffffffff 7 800] ------- [7:255 -1:255 29 0] [0x2 1 1 [17 0] [0 4]] (REQUEST)
s 0.004447199 _20_ RTR  --- 0 AOMDV 52 [0 ffffffff 0 800] ------- [20:255 -1:255 29 0] [0x2 1 1 [17 0] [0 4]] (REQUEST)
D 0.004447226 _9_ MAC  COL 0 AOMDV 110 [0 ffffffff 7 800] ------- [7:255 -1:255 29 0] [0x2 1 1 [17 0] [0 4]] (REQUEST)
D 0.004447326 _15_ MAC  COL 0 AOMDV 110 [0 ffffffff 7 800] ------- [7:255 -1:255 29 0] [0x2 1 1 [17 0] [0 4]] (REQUEST)
D 0.004447485 _20_ MAC  COL 0 AOMDV 110 [0 ffffffff 7 800] ------- [7:255 -1:255 29 0] [0x2 1 1 [17 0] [0 4]] (REQUEST)
r 0.004471099 _6_ RTR  --- 0 AOMDV 52 [0 ffffffff 7 800] ------- [7:255 -1:255 29 0] [0x2 1 1 [17 0] [0 4]] (REQUEST)
r 0.004471206 _5_ RTR  --- 0 AOMDV 52 [0 ffffffff 7 800] ------- [7:255 -1:255 29 0] [0x2 1 1 [17 0] [0 4]] (REQUEST)
r 0.004471237 _10_ RTR  --- 0 AOMDV 52 [0 ffffffff 7 800] ------- [7:255 -1:255 29 0] [0x2 1 1 [17 0] [0 4]] (REQUEST)
s 0.004492315 _2_ RTR  --- 0 AOMDV 52 [0 ffffffff 0 800] ------- [2:255 -1:255 29 0] [0x2 1 1 [17 0] [0 4]] (REQUEST)
s 0.004714168 _16_ RTR  --- 0 AOMDV 52 [0 ffffffff 0 800] ------- [16:255 -1:255 29 0] [0x2 1 1 [17 0] [0 4]] (REQUEST)
s 0.004882183 _8_ RTR  --- 0 AOMDV 52 [0 ffffffff 0 800] ------- [8:255 -1:255 29 0] [0x2 1 1 [17 0] [0 4]] (REQUEST)
s 0.004921056 _17_ MAC  --- 0 ARP 86 [0 ffffffff 11 806] ------- [REQUEST 17/17 0/5]
r 0.005609350 _16_ MAC  --- 0 ARP 28 [0 ffffffff 11 806] ------- [REQUEST 17/17 0/5]
r 0.005609589 _0_ MAC  --- 0 ARP 28 [0 ffffffff 11 806] ------- [REQUEST 17/17 0/5]
r 0.005609620 _14_ MAC  --- 0 ARP 28 [0 ffffffff 11 806] ------- [REQUEST 17/17 0/5]
r 0.005609787 _15_ MAC  --- 0 ARP 28 [0 ffffffff 11 806] ------- [REQUEST 17/17 0/5]
r 0.005609811 _21_ MAC  --- 0 ARP 28 [0 ffffffff 11 806] ------- [REQUEST 17/17 0/5]
r 0.005609993 _18_ MAC  --- 0 ARP 28 [0 ffffffff 11 806] ------- [REQUEST 17/17 0/5]
r 0.005610013 _11_ MAC  --- 0 ARP 28 [0 ffffffff 11 806] ------- [REQUEST 17/17 0/5]
r 0.005610029 _13_ MAC  --- 0 ARP 28 [0 ffffffff 11 806] ------- [REQUEST 17/17 0/5]
r 0.005610045 _8_ MAC  --- 0 ARP 28 [0 ffffffff 11 806] ------- [REQUEST 17/17 0/5]
r 0.005610253 _9_ MAC  --- 0 ARP 28 [0 ffffffff 11 806] ------- [REQUEST 17/17 0/5]
r 0.005610368 _6_ MAC  --- 0 ARP 28 [0 ffffffff 11 806] ------- [REQUEST 17/17 0/5]
r 0.005610372 _7_ MAC  --- 0 ARP 28 [0 ffffffff 11 806] ------- [REQUEST 17/17 0/5]
r 0.005610507 _3_ MAC  --- 0 ARP 28 [0 ffffffff 11 806] ------- [REQUEST 17/17 0/5]
r 0.005610526 _20_ MAC  --- 0 ARP 28 [0 ffffffff 11 806] ------- [REQUEST 17/17 0/5]
r 0.005610599 _12_ MAC  --- 0 ARP 28 [0 ffffffff 11 806] ------- [REQUEST 17/17 0/5]
r 0.005610669 _10_ MAC  --- 0 ARP 28 [0 ffffffff 11 806] ------- [REQUEST 17/17 0/5]
r 0.005610678 _19_ MAC  --- 0 ARP 28 [0 ffffffff 11 806] ------- [REQUEST 17/17 0/5]
r 0.005610684 _2_ MAC  --- 0 ARP 28 [0 ffffffff 11 806] ------- [REQUEST 17/17 0/5]
r 0.005610795 _5_ MAC  --- 0 ARP 28 [0 ffffffff 11 806] ------- [REQUEST 17/17 0/5]
r 0.005610829 _4_ MAC  --- 0 ARP 28 [0 ffffffff 11 806] ------- [REQUEST 17/17 0/5]
r 0.005611062 _1_ MAC  --- 0 ARP 28 [0 ffffffff 11 806] ------- [REQUEST 17/17 0/5]
s 0.005859993 _18_ MAC  --- 0 AOMDV 110 [0 ffffffff 12 800] ------- [18:255 -1:255 29 0] [0x2 1 1 [17 0] [0 4]] (REQUEST)
s 0.005952931 _6_ RTR  --- 0 AOMDV 52 [0 ffffffff 0 800] ------- [6:255 -1:255 29 0] [0x2 1 1 [17 0] [0 4]] (REQUEST)
s 0.006144756 _12_ RTR  --- 0 AOMDV 52 [0 ffffffff 0 800] ------- [12:255 -1:255 29 0] [0x2 1 1 [17 0] [0 4]] (REQUEST)
s 0.006533467 _11_ RTR  --- 0 AOMDV 52 [0 ffffffff 0 800] ------- [11:255 -1:255 29 0] [0x2 1 1 [17 0] [0 4]] (REQUEST)
s 0.006606943 _9_ RTR  --- 0 AOMDV 52 [0 ffffffff 0 800] ------- [9:255 -1:255 29 0] [0x2 1 1 [17 0] [0 4]] (REQUEST)
r 0.006740439 _21_ MAC  --- 0 AOMDV 52 [0 ffffffff 12 800] ------- [18:255 -1:255 29 0] [0x2 1 1 [17 0] [0 4]] (REQUEST)
r 0.006740486 _11_ MAC  --- 0 AOMDV 52 [0 ffffffff 12 800] ------- [18:255 -1:255 29 0] [0x2 1 1 [17 0] [0 4]] (REQUEST)
r 0.006740675 _12_ MAC  --- 0 AOMDV 52 [0 ffffffff 12 800] ------- [18:255 -1:255 29 0] [0x2 1 1 [17 0] [0 4]] (REQUEST)
r 0.006740690 _19_ MAC  --- 0 AOMDV 52 [0 ffffffff 12 800] ------- [18:255 -1:255 29 0] [0x2 1 1 [17 0] [0 4]] (REQUEST)
r 0.006740756 _0_ MAC  --- 0 AOMDV 52 [0 ffffffff 12 800] ------- [18:255 -1:255 29 0] [0x2 1 1 [17 0] [0 4]] (REQUEST)
r 0.006740765 _20_ MAC  --- 0 AOMDV 52 [0 ffffffff 12 800] ------- [18:255 -1:255 29 0] [0x2 1 1 [17 0] [0 4]] (REQUEST)
r 0.006740931 _17_ MAC  --- 0 AOMDV 52 [0 ffffffff 12 800] ------- [18:255 -1:255 29 0] [0x2 1 1 [17 0] [0 4]] (REQUEST)
r 0.006740982 _10_ MAC  --- 0 AOMDV 52 [0 ffffffff 12 800] ------- [18:255 -1:255 29 0] [0x2 1 1 [17 0] [0 4]] (REQUEST)
r 0.006741004 _7_ MAC  --- 0 AOMDV 52 [0 ffffffff 12 800] ------- [18:255 -1:255 29 0] [0x2 1 1 [17 0] [0 4]] (REQUEST)
r 0.006741223 _16_ MAC  --- 0 AOMDV 52 [0 ffffffff 12 800] ------- [18:255 -1:255 29 0] [0x2 1 1 [17 0] [0 4]] (REQUEST)
r 0.006741241 _13_ MAC  --- 0 AOMDV 52 [0 ffffffff 12 800] ------- [18:255 -1:255 29 0] [0x2 1 1 [17 0] [0 4]] (REQUEST)
r 0.006741253 _6_ MAC  --- 0 AOMDV 52 [0 ffffffff 12 800] ------- [18:255 -1:255 29 0] [0x2 1 1 [17 0] [0 4]] (REQUEST)
r 0.006741254 _14_ MAC  --- 0 AOMDV 52 [0 ffffffff 12 800] ------- [18:255 -1:255 29 0] [0x2 1 1 [17 0] [0 4]] (REQUEST)
r 0.006741459 _5_ MAC  --- 0 AOMDV 52 [0 ffffffff 12 800] ------- [18:255 -1:255 29 0] [0x2 1 1 [17 0] [0 4]] (REQUEST)
r 0.006741485 _8_ MAC  --- 0 AOMDV 52 [0 ffffffff 12 800] ------- [18:255 -1:255 29 0] [0x2 1 1 [17 0] [0 4]] (REQUEST)
r 0.006741596 _15_ MAC  --- 0 AOMDV 52 [0 ffffffff 12 800] ------- [18:255 -1:255 29 0] [0x2 1 1 [17 0] [0 4]] (REQUEST)
r 0.006741687 _3_ MAC  --- 0 AOMDV 52 [0 ffffffff 12 800] ------- [18:255 -1:255 29 0] [0x2 1 1 [17 0] [0 4]] (REQUEST)
r 0.006741733 _4_ MAC  --- 0 AOMDV 52 [0 ffffffff 12 800] ------- [18:255 -1:255 29 0] [0x2 1 1 [17 0] [0 4]] (REQUEST)
r 0.006741867 _9_ MAC  --- 0 AOMDV 52 [0 ffffffff 12 800] ------- [18:255 -1:255 29 0] [0x2 1 1 [17 0] [0 4]] (REQUEST)
r 0.006742035 _2_ MAC  --- 0 AOMDV 52 [0 ffffffff 12 800] ------- [18:255 -1:255 29 0] [0x2 1 1 [17 0] [0 4]] (REQUEST)
r 0.006742179 _1_ MAC  --- 0 AOMDV 52 [0 ffffffff 12 800] ------- [18:255 -1:255 29 0] [0x2 1 1 [17 0] [0 4]] (REQUEST)
r 0.006765439 _21_ RTR  --- 0 AOMDV 52 [0 ffffffff 12 800] ------- [18:255 -1:255 29 0] [0x2 1 1 [17 0] [0 4]] (REQUEST)
r 0.006765486 _11_ RTR  --- 0 AOMDV 52 [0 ffffffff 12 800] ------- [18:255 -1:255 29 0] [0x2 1 1 [17 0] [0 4]] (REQUEST)
r 0.006765675 _12_ RTR  --- 0 AOMDV 52 [0 ffffffff 12 800] ------- [18:255 -1:255 29 0] [0x2 1 1 [17 0] [0 4]] (REQUEST)
r 0.006765690 _19_ RTR  --- 0 AOMDV 52 [0 ffffffff 12 800] ------- [18:255 -1:255 29 0] [0x2 1 1 [17 0] [0 4]] (REQUEST)
r 0.006765756 _0_ RTR  --- 0 AOMDV 52 [0 ffffffff 12 800] ------- [18:255 -1:255 29 0] [0x2 1 1 [17 0] [0 4]] (REQUEST)
r 0.006765765 _20_ RTR  --- 0 AOMDV 52 [0 ffffffff 12 800] ------- [18:255 -1:255 29 0] [0x2 1 1 [17 0] [0 4]] (REQUEST)
r 0.006765931 _17_ RTR  --- 0 AOMDV 52 [0 ffffffff 12 800] ------- [18:255 -1:255 29 0] [0x2 1 1 [17 0] [0 4]] (REQUEST)
s 0.006765931 _17_ RTR  --- 0 AOMDV 52 [0 0 0 0] ------- [17:255 0:255 30 18] [0x4 0 [17 2] 10.000000] (REPLY) [1 18]
r 0.006765982 _10_ RTR  --- 0 AOMDV 52 [0 ffffffff 12 800] ------- [18:255 -1:255 29 0] [0x2 1 1 [17 0] [0 4]] (REQUEST)
r 0.006766004 _7_ RTR  --- 0 AOMDV 52 [0 ffffffff 12 800] ------- [18:255 -1:255 29 0] [0x2 1 1 [17 0] [0 4]] (REQUEST)
r 0.006766223 _16_ RTR  --- 0 AOMDV 52 [0 ffffffff 12 800] ------- [18:255 -1:255 29 0] [0x2 1 1 [17 0] [0 4]] (REQUEST)
r 0.006766241 _13_ RTR  --- 0 AOMDV 52 [0 ffffffff 12 800] ------- [18:255 -1:255 29 0] [0x2 1 1 [17 0] [0 4]] (REQUEST)
r 0.006766253 _6_ RTR  --- 0 AOMDV 52 [0 ffffffff 12 800] ------- [18:255 -1:255 29 0] [0x2 1 1 [17 0] [0 4]] (REQUEST)
r 0.006766254 _14_ RTR  --- 0 AOMDV 52 [0 ffffffff 12 800] ------- [18:255 -1:255 29 0] [0x2 1 1 [17 0] [0 4]] (REQUEST)
r 0.006766459 _5_ RTR  --- 0 AOMDV 52 [0 ffffffff 12 800] ------- [18:255 -1:255 29 0] [0x2 1 1 [17 0] [0 4]] (REQUEST)
r 0.006766485 _8_ RTR  --- 0 AOMDV 52 [0 ffffffff 12 800] ------- [18:255 -1:255 29 0] [0x2 1 1 [17 0] [0 4]] (REQUEST)
r 0.006766596 _15_ RTR  --- 0 AOMDV 52 [0 ffffffff 12 800] ------- [18:255 -1:255 29 0] [0x2 1 1 [17 0] [0 4]] (REQUEST)
r 0.006766687 _3_ RTR  --- 0 AOMDV 52 [0 ffffffff 12 800] ------- [18:255 -1:255 29 0] [0x2 1 1 [17 0] [0 4]] (REQUEST)
r 0.006766733 _4_ RTR  --- 0 AOMDV 52 [0 ffffffff 12 800] ------- [18:255 -1:255 29 0] [0x2 1 1 [17 0] [0 4]] (REQUEST)
r 0.006766867 _9_ RTR  --- 0 AOMDV 52 [0 ffffffff 12 800] ------- [18:255 -1:255 29 0] [0x2 1 1 [17 0] [0 4]] (REQUEST)
r 0.006767035 _2_ RTR  --- 0 AOMDV 52 [0 ffffffff 12 800] ------- [18:255 -1:255 29 0] [0x2 1 1 [17 0] [0 4]] (REQUEST)
r 0.006767179 _1_ RTR  --- 0 AOMDV 52 [0 ffffffff 12 800] ------- [18:255 -1:255 29 0] [0x2 1 1 [17 0] [0 4]] (REQUEST)
s 0.006810439 _21_ MAC  --- 0 AOMDV 110 [0 ffffffff 15 800] ------- [21:255 -1:255 29 0] [0x2 1 1 [17 0] [0 4]] (REQUEST)
s 0.007025998 _15_ RTR  --- 0 AOMDV 52 [0 ffffffff 0 800] ------- [15:255 -1:255 29 0] [0x2 1 1 [17 0] [0 4]] (REQUEST)
s 0.007058553 _1_ RTR  --- 0 AOMDV 52 [0 ffffffff 0 800] ------- [1:255 -1:255 29 0] [0x2 1 1 [17 0] [0 4]] (REQUEST)
s 0.007194948 _19_ RTR  --- 0 AOMDV 52 [0 ffffffff 0 800] ------- [19:255 -1:255 29 0] [0x2 1 1 [17 0] [0 4]] (REQUEST)
s 0.007204880 _10_ RTR  --- 0 AOMDV 52 [0 ffffffff 0 800] ------- [10:255 -1:255 29 0] [0x2 1 1 [17 0] [0 4]] (REQUEST)
s 0.007410113 _13_ RTR  --- 0 AOMDV 52 [0 ffffffff 0 800] ------- [13:255 -1:255 29 0] [0x2 1 1 [17 0] [0 4]] (REQUEST)
s 0.007418121 _14_ RTR  --- 0 AOMDV 52 [0 ffffffff 0 800] ------- [14:255 -1:255 29 0] [0x2 1 1 [17 0] [0 4]] (REQUEST)
r 0.007690884 _18_ MAC  --- 0 AOMDV 52 [0 ffffffff 15 800] ------- [21:255 -1:255 29 0] [0x2 1 1 [17 0] [0 4]] (REQUEST)
r 0.007691153 _20_ MAC  --- 0 AOMDV 52 [0 ffffffff 15 800] ------- [21:255 -1:255 29 0] [0x2 1 1 [17 0] [0 4]] (REQUEST)
r 0.007691194 _17_ MAC  --- 0 AOMDV 52 [0 ffffffff 15 800] ------- [21:255 -1:255 29 0] [0x2 1 1 [17 0] [0 4]] (REQUEST)
r 0.007691288 _11_ MAC  --- 0 AOMDV 52 [0 ffffffff 15 800] ------- [21:255 -1:255 29 0] [0x2 1 1 [17 0] [0 4]] (REQUEST)
r 0.007691303 _0_ MAC  --- 0 AOMDV 52 [0 ffffffff 15 800] ------- [21:255 -1:255 29 0] [0x2 1 1 [17 0] [0 4]] (REQUEST)
r 0.007691404 _19_ MAC  --- 0 AOMDV 52 [0 ffffffff 15 800] ------- [21:255 -1:255 29 0] [0x2 1 1 [17 0] [0 4]] (REQUEST)
r 0.007691477 _16_ MAC  --- 0 AOMDV 52 [0 ffffffff 15 800] ------- [21:255 -1:255 29 0] [0x2 1 1 [17 0] [0 4]] (REQUEST)
r 0.007691554 _12_ MAC  --- 0 AOMDV 52 [0 ffffffff 15 800] ------- [21:255 -1:255 29 0] [0x2 1 1 [17 0] [0 4]] (REQUEST)
r 0.007691680 _14_ MAC  --- 0 AOMDV 52 [0 ffffffff 15 800] ------- [21:255 -1:255 29 0] [0x2 1 1 [17 0] [0 4]] (REQUEST)
r 0.007691812 _7_ MAC  --- 0 AOMDV 52 [0 ffffffff 15 800] ------- [21:255 -1:255 29 0] [0x2 1 1 [17 0] [0 4]] (REQUEST)
r 0.007691856 _13_ MAC  --- 0 AOMDV 52 [0 ffffffff 15 800] ------- [21:255 -1:255 29 0] [0x2 1 1 [17 0] [0 4]] (REQUEST)
r 0.007691864 _10_ MAC  --- 0 AOMDV 52 [0 ffffffff 15 800] ------- [21:255 -1:255 29 0] [0x2 1 1 [17 0] [0 4]] (REQUEST)
r 0.007691924 _15_ MAC  --- 0 AOMDV 52 [0 ffffffff 15 800] ------- [21:255 -1:255 29 0] [0x2 1 1 [17 0] [0 4]] (REQUEST)
r 0.007691994 _6_ MAC  --- 0 AOMDV 52 [0 ffffffff 15 800] ------- [21:255 -1:255 29 0] [0x2 1 1 [17 0] [0 4]] (REQUEST)
r 0.007692019 _8_ MAC  --- 0 AOMDV 52 [0 ffffffff 15 800] ------- [21:255 -1:255 29 0] [0x2 1 1 [17 0] [0 4]] (REQUEST)
r 0.007692278 _5_ MAC  --- 0 AOMDV 52 [0 ffffffff 15 800] ------- [21:255 -1:255 29 0] [0x2 1 1 [17 0] [0 4]] (REQUEST)
r 0.007692330 _9_ MAC  --- 0 AOMDV 52 [0 ffffffff 15 800] ------- [21:255 -1:255 29 0] [0x2 1 1 [17 0] [0 4]] (REQUEST)
r 0.007692342 _3_ MAC  --- 0 AOMDV 52 [0 ffffffff 15 800] ------- [21:255 -1:255 29 0] [0x2 1 1 [17 0] [0 4]] (REQUEST)
r 0.007692489 _4_ MAC  --- 0 AOMDV 52 [0 ffffffff 15 800] ------- [21:255 -1:255 29 0] [0x2 1 1 [17 0] [0 4]] (REQUEST)
r 0.007692631 _2_ MAC  --- 0 AOMDV 52 [0 ffffffff 15 800] ------- [21:255 -1:255 29 0] [0x2 1 1 [17 0] [0 4]] (REQUEST)
r 0.007692873 _1_ MAC  --- 0 AOMDV 52 [0 ffffffff 15 800] ------- [21:255 -1:255 29 0] [0x2 1 1 [17 0] [0 4]] (REQUEST)
r 0.007715884 _18_ RTR  --- 0 AOMDV 52 [0 ffffffff 15 800] ------- [21:255 -1:255 29 0] [0x2 1 1 [17 0] [0 4]] (REQUEST)
r 0.007716153 _20_ RTR  --- 0 AOMDV 52 [0 ffffffff 15 800] ------- [21:255 -1:255 29 0] [0x2 1 1 [17 0] [0 4]] (REQUEST)
r 0.007716194 _17_ RTR  --- 0 AOMDV 52 [0 ffffffff 15 800] ------- [21:255 -1:255 29 0] [0x2 1 1 [17 0] [0 4]] (REQUEST)
s 0.007716194 _17_ RTR  --- 0 AOMDV 52 [0 0 0 0] ------- [17:255 0:255 30 21] [0x4 0 [17 2] 10.000000] (REPLY) [1 21]
r 0.007716288 _11_ RTR  --- 0 AOMDV 52 [0 ffffffff 15 800] ------- [21:255 -1:255 29 0] [0x2 1 1 [17 0] [0 4]] (REQUEST)
r 0.007716303 _0_ RTR  --- 0 AOMDV 52 [0 ffffffff 15 800] ------- [21:255 -1:255 29 0] [0x2 1 1 [17 0] [0 4]] (REQUEST)
r 0.007716404 _19_ RTR  --- 0 AOMDV 52 [0 ffffffff 15 800] ------- [21:255 -1:255 29 0] [0x2 1 1 [17 0] [0 4]] (REQUEST)
r 0.007716477 _16_ RTR  --- 0 AOMDV 52 [0 ffffffff 15 800] ------- [21:255 -1:255 29 0] [0x2 1 1 [17 0] [0 4]] (REQUEST)
r 0.007716554 _12_ RTR  --- 0 AOMDV 52 [0 ffffffff 15 800] ------- [21:255 -1:255 29 0] [0x2 1 1 [17 0] [0 4]] (REQUEST)
r 0.007716680 _14_ RTR  --- 0 AOMDV 52 [0 ffffffff 15 800] ------- [21:255 -1:255 29 0] [0x2 1 1 [17 0] [0 4]] (REQUEST)
r 0.007716812 _7_ RTR  --- 0 AOMDV 52 [0 ffffffff 15 800] ------- [21:255 -1:255 29 0] [0x2 1 1 [17 0] [0 4]] (REQUEST)
r 0.007716856 _13_ RTR  --- 0 AOMDV 52 [0 ffffffff 15 800] ------- [21:255 -1:255 29 0] [0x2 1 1 [17 0] [0 4]] (REQUEST)
r 0.007716864 _10_ RTR  --- 0 AOMDV 52 [0 ffffffff 15 800] ------- [21:255 -1:255 29 0] [0x2 1 1 [17 0] [0 4]] (REQUEST)
r 0.007716924 _15_ RTR  --- 0 AOMDV 52 [0 ffffffff 15 800] ------- [21:255 -1:255 29 0] [0x2 1 1 [17 0] [0 4]] (REQUEST)
r 0.007716994 _6_ RTR  --- 0 AOMDV 52 [0 ffffffff 15 800] ------- [21:255 -1:255 29 0] [0x2 1 1 [17 0] [0 4]] (REQUEST)
r 0.007717019 _8_ RTR  --- 0 AOMDV 52 [0 ffffffff 15 800] ------- [21:255 -1:255 29 0] [0x2 1 1 [17 0] [0 4]] (REQUEST)
r 0.007717278 _5_ RTR  --- 0 AOMDV 52 [0 ffffffff 15 800] ------- [21:255 -1:255 29 0] [0x2 1 1 [17 0] [0 4]] (REQUEST)
r 0.007717330 _9_ RTR  --- 0 AOMDV 52 [0 ffffffff 15 800] ------- [21:255 -1:255 29 0] [0x2 1 1 [17 0] [0 4]] (REQUEST)
r 0.007717342 _3_ RTR  --- 0 AOMDV 52 [0 ffffffff 15 800] ------- [21:255 -1:255 29 0] [0x2 1 1 [17 0] [0 4]] (REQUEST)
r 0.007717489 _4_ RTR  --- 0 AOMDV 52 [0 ffffffff 15 800] ------- [21:255 -1:255 29 0] [0x2 1 1 [17 0] [0 4]] (REQUEST)
r 0.007717631 _2_ RTR  --- 0 AOMDV 52 [0 ffffffff 15 800] ------- [21:255 -1:255 29 0] [0x2 1 1 [17 0] [0 4]] (REQUEST)
r 0.007717873 _1_ RTR  --- 0 AOMDV 52 [0 ffffffff 15 800] ------- [21:255 -1:255 29 0] [0x2 1 1 [17 0] [0 4]] (REQUEST)