s 0.000000000 _0_ AGT  --- 0 cbr 1000 [0 0 0 0] ------- [0:0 17:0 32 0] [0] 0 0
r 0.000000000 _0_ RTR  --- 0 cbr 1000 [0 0 0 0] ------- [0:0 17:0 32 0] [0] 0 0
v 0 eval {set sim_annotation {MOBILE NODE MOVEMENTS}}
s 0.000000000 _0_ RTR  --- 0 AOMDV 52 [0 0 0 0] ------- [0:255 -1:255 30 0] [0x2 0 1 [17 0] [0 4]] (REQUEST)
s 0.000415000 _0_ MAC  --- 0 AOMDV 110 [0 ffffffff 0 800] ------- [0:255 -1:255 30 0] [0x2 0 1 [17 0] [0 4]] (REQUEST)
r 0.001295520 _11_ MAC  --- 0 AOMDV 52 [0 ffffffff 0 800] ------- [0:255 -1:255 30 0] [0x2 0 1 [17 0] [0 4]] (REQUEST)
r 0.001295527 _14_ MAC  --- 0 AOMDV 52 [0 ffffffff 0 800] ------- [0:255 -1:255 30 0] [0x2 0 1 [17 0] [0 4]] (REQUEST)
r 0.001295533 _17_ MAC  --- 0 AOMDV 52 [0 ffffffff 0 800] ------- [0:255 -1:255 30 0] [0x2 0 1 [17 0] [0 4]] (REQUEST)
r 0.001295555 _13_ MAC  --- 0 AOMDV 52 [0 ffffffff 0 800] ------- [0:255 -1:255 30 0] [0x2 0 1 [17 0] [0 4]] (REQUEST)
r 0.001295717 _16_ MAC  --- 0 AOMDV 52 [0 ffffffff 0 800] ------- [0:255 -1:255 30 0] [0x2 0 1 [17 0] [0 4]] (REQUEST)
r 0.001295737 _8_ MAC  --- 0 AOMDV 52 [0 ffffffff 0 800] ------- [0:255 -1:255 30 0] [0x2 0 1 [17 0] [0 4]] (REQUEST)
r 0.001295762 _18_ MAC  --- 0 AOMDV 52 [0 ffffffff 0 800] ------- [0:255 -1:255 30 0] [0x2 0 1 [17 0] [0 4]] (REQUEST)
r 0.001295786 _7_ MAC  --- 0 AOMDV 52 [0 ffffffff 0 800] ------- [0:255 -1:255 30 0] [0x2 0 1 [17 0] [0 4]] (REQUEST)
r 0.001295797 _6_ MAC  --- 0 AOMDV 52 [0 ffffffff 0 800] ------- [0:255 -1:255 30 0] [0x2 0 1 [17 0] [0 4]] (REQUEST)
r 0.001295865 _21_ MAC  --- 0 AOMDV 52 [0 ffffffff 0 800] ------- [0:255 -1:255 30 0] [0x2 0 1 [17 0] [0 4]] (REQUEST)
r 0.001295927 _15_ MAC  --- 0 AOMDV 52 [0 ffffffff 0 800] ------- [0:255 -1:255 30 0] [0x2 0 1 [17 0] [0 4]] (REQUEST)
r 0.001296047 _3_ MAC  --- 0 AOMDV 52 [0 ffffffff 0 800] ------- [0:255 -1:255 30 0] [0x2 0 1 [17 0] [0 4]] (REQUEST)
r 0.001296112 _9_ MAC  --- 0 AOMDV 52 [0 ffffffff 0 800] ------- [0:255 -1:255 30 0] [0x2 0 1 [17 0] [0 4]] (REQUEST)
r 0.001296128 _10_ MAC  --- 0 AOMDV 52 [0 ffffffff 0 800] ------- [0:255 -1:255 30 0] [0x2 0 1 [17 0] [0 4]] (REQUEST)
r 0.001296182 _12_ MAC  --- 0 AOMDV 52 [0 ffffffff 0 800] ------- [0:255 -1:255 30 0] [0x2 0 1 [17 0] [0 4]] (REQUEST)
r 0.001296207 _5_ MAC  --- 0 AOMDV 52 [0 ffffffff 0 800] ------- [0:255 -1:255 30 0] [0x2 0 1 [17 0] [0 4]] (REQUEST)
r 0.001296278 _4_ MAC  --- 0 AOMDV 52 [0 ffffffff 0 800] ------- [0:255 -1:255 30 0] [0x2 0 1 [17 0] [0 4]] (REQUEST)
r 0.001296330 _2_ MAC  --- 0 AOMDV 52 [0 ffffffff 0 800] ------- [0:255 -1:255 30 0] [0x2 0 1 [17 0] [0 4]] (REQUEST)
r 0.001296435 _19_ MAC  --- 0 AOMDV 52 [0 ffffffff 0 800] ------- [0:255 -1:255 30 0] [0x2 0 1 [17 0] [0 4]] (REQUEST)
r 0.001296491 _20_ MAC  --- 0 AOMDV 52 [0 ffffffff 0 800] ------- [0:255 -1:255 30 0] [0x2 0 1 [17 0] [0 4]] (REQUEST)
r 0.001296591 _1_ MAC  --- 0 AOMDV 52 [0 ffffffff 0 800] ------- [0:255 -1:255 30 0] [0x2 0 1 [17 0] [0 4]] (REQUEST)
r 0.001320520 _11_ RTR  --- 0 AOMDV 52 [0 ffffffff 0 800] ------- [0:255 -1:255 30 0] [0x2 0 1 [17 0] [0 4]] (REQUEST)
r 0.001320527 _14_ RTR  --- 0 AOMDV 52 [0 ffffffff 0 800] ------- [0:255 -1:255 30 0] [0x2 0 1 [17 0] [0 4]] (REQUEST)
r 0.001320533 _17_ RTR  --- 0 AOMDV 52 [0 ffffffff 0 800] ------- [0:255 -1:255 30 0] [0x2 0 1 [17 0] [0 4]] (REQUEST)
s 0.001320533 _17_ RTR  --- 0 AOMDV 52 [0 0 0 0] ------- [17:255 0:255 30 0] [0x4 0 [17 2] 10.000000] (REPLY) [1 0]
r 0.001320555 _13_ RTR  --- 0 AOMDV 52 [0 ffffffff 0 800] ------- [0:255 -1:255 30 0] [0x2 0 1 [17 0] [0 4]] (REQUEST)
r 0.001320717 _16_ RTR  --- 0 AOMDV 52 [0 ffffffff 0 800] ------- [0:255 -1:255 30 0] [0x2 0 1 [17 0] [0 4]] (REQUEST)
r 0.001320737 _8_ RTR  --- 0 AOMDV 52 [0 ffffffff 0 800] ------- [0:255 -1:255 30 0] [0x2 0 1 [17 0] [0 4]] (REQUEST)
r 0.001320762 _18_ RTR  --- 0 AOMDV 52 [0 ffffffff 0 800] ------- [0:255 -1:255 30 0] [0x2 0 1 [17 0] [0 4]] (REQUEST)
r 0.001320786 _7_ RTR  --- 0 AOMDV 52 [0 ffffffff 0 800] ------- [0:255 -1:255 30 0] [0x2 0 1 [17 0] [0 4]] (REQUEST)
r 0.001320797 _6_ RTR  --- 0 AOMDV 52 [0 ffffffff 0 800] ------- [0:255 -1:255 30 0] [0x2 0 1 [17 0] [0 4]] (REQUEST)
r 0.001320865 _21_ RTR  --- 0 AOMDV 52 [0 ffffffff 0 800] ------- [0:255 -1:255 30 0] [0x2 0 1 [17 0] [0 4]] (REQUEST)
r 0.001320927 _15_ RTR  --- 0 AOMDV 52 [0 ffffffff 0 800] ------- [0:255 -1:255 30 0] [0x2 0 1 [17 0] [0 4]] (REQUEST)
r 0.001321047 _3_ RTR  --- 0 AOMDV 52 [0 ffffffff 0 800] ------- [0:255 -1:255 30 0] [0x2 0 1 [17 0] [0 4]] (REQUEST)
r 0.001321112 _9_ RTR  --- 0 AOMDV 52 [0 ffffffff 0 800] ------- [0:255 -1:255 30 0] [0x2 0 1 [17 0] [0 4]] (REQUEST)
r 0.001321128 _10_ RTR  --- 0 AOMDV 52 [0 ffffffff 0 800] ------- [0:255 -1:255 30 0] [0x2 0 1 [17 0] [0 4]] (REQUEST)
r 0.001321182 _12_ RTR  --- 0 AOMDV 52 [0 ffffffff 0 800] ------- [0:255 -1:255 30 0] [0x2 0 1 [17 0] [0 4]] (REQUEST)
r 0.001321207 _5_ RTR  --- 0 AOMDV 52 [0 ffffffff 0 800] ------- [0:255 -1:255 30 0] [0x2 0 1 [17 0] [0 4]] (REQUEST)
r 0.001321278 _4_ RTR  --- 0 AOMDV 52 [0 ffffffff 0 800] ------- [0:255 -1:255 30 0] [0x2 0 1 [17 0] [0 4]] (REQUEST)
r 0.001321330 _2_ RTR  --- 0 AOMDV 52 [0 ffffffff 0 800] ------- [0:255 -1:255 30 0] [0x2 0 1 [17 0] [0 4]] (REQUEST)
r 0.001321435 _19_ RTR  --- 0 AOMDV 52 [0 ffffffff 0 800] ------- [0:255 -1:255 30 0] [0x2 0 1 [17 0] [0 4]] (REQUEST)
r 0.001321491 _20_ RTR  --- 0 AOMDV 52 [0 ffffffff 0 800] ------- [0:255 -1:255 30 0] [0x2 0 1 [17 0] [0 4]] (REQUEST)
r 0.001321591 _1_ RTR  --- 0 AOMDV 52 [0 ffffffff 0 800] ------- [0:255 -1:255 30 0] [0x2 0 1 [17 0] [0 4]] (REQUEST)
s 0.001575533 _17_ MAC  --- 0 ARP 86 [0 ffffffff 11 806] ------- [REQUEST 17/17 0/0]
s 0.001612460 _7_ RTR  --- 0 AOMDV 52 [0 ffffffff 0 800] ------- [7:255 -1:255 29 0] [0x2 1 1 [17 0] [0 4]] (REQUEST)
s 0.001900467 _3_ RTR  --- 0 AOMDV 52 [0 ffffffff 0 800] ------- [3:255 -1:255 29 0] [0x2 1 1 [17 0] [0 4]] (REQUEST)
s 0.002108722 _10_ RTR  --- 0 AOMDV 52 [0 ffffffff 0 800] ------- [10:255 -1:255 29 0] [0x2 1 1 [17 0] [0 4]] (REQUEST)
r 0.002263827 _16_ MAC  --- 0 ARP 28 [0 ffffffff 11 806] ------- [REQUEST 17/17 0/0]
r 0.002264066 _0_ MAC  --- 0 ARP 28 [0 ffffffff 11 806] ------- [REQUEST 17/17 0/0]
r 0.002264097 _14_ MAC  --- 0 ARP 28 [0 ffffffff 11 806] ------- [REQUEST 17/17 0/0]
r 0.002264264 _15_ MAC  --- 0 ARP 28 [0 ffffffff 11 806] ------- [REQUEST 17/17 0/0]
r 0.002264289 _21_ MAC  --- 0 ARP 28 [0 ffffffff 11 806] ------- [REQUEST 17/17 0/0]
r 0.002264471 _18_ MAC  --- 0 ARP 28 [0 ffffffff 11 806] ------- [REQUEST 17/17 0/0]
r 0.002264491 _11_ MAC  --- 0 ARP 28 [0 ffffffff 11 806] ------- [REQUEST 17/17 0/0]
r 0.002264507 _13_ MAC  --- 0 ARP 28 [0 ffffffff 11 806] ------- [REQUEST 17/17 0/0]
r 0.002264522 _8_ MAC  --- 0 ARP 28 [0 ffffffff 11 806] ------- [REQUEST 17/17 0/0]
r 0.002264731 _9_ MAC  --- 0 ARP 28 [0 ffffffff 11 806] ------- [REQUEST 17/17 0/0]
r 0.002264846 _6_ MAC  --- 0 ARP 28 [0 ffffffff 11 806] ------- [REQUEST 17/17 0/0]
r 0.002264849 _7_ MAC  --- 0 ARP 28 [0 ffffffff 11 806] ------- [REQUEST 17/17 0/0]
r 0.002264984 _3_ MAC  --- 0 ARP 28 [0 ffffffff 11 806] ------- [REQUEST 17/17 0/0]
r 0.002265003 _20_ MAC  --- 0 ARP 28 [0 ffffffff 11 806] ------- [REQUEST 17/17 0/0]
r 0.002265076 _12_ MAC  --- 0 ARP 28 [0 ffffffff 11 806] ------- [REQUEST 17/17 0/0]
r 0.002265146 _10_ MAC  --- 0 ARP 28 [0 ffffffff 11 806] ------- [REQUEST 17/17 0/0]
r 0.002265156 _19_ MAC  --- 0 ARP 28 [0 ffffffff 11 806] ------- [REQUEST 17/17 0/0]
r 0.002265162 _2_ MAC  --- 0 ARP 28 [0 ffffffff 11 806] ------- [REQUEST 17/17 0/0]
r 0.002265272 _5_ MAC  --- 0 ARP 28 [0 ffffffff 11 806] ------- [REQUEST 17/17 0/0]
r 0.002265306 _4_ MAC  --- 0 ARP 28 [0 ffffffff 11 806] ------- [REQUEST 17/17 0/0]
r 0.002265539 _1_ MAC  --- 0 ARP 28 [0 ffffffff 11 806] ------- [REQUEST 17/17 0/0]
s 0.002414066 _0_ MAC  --- 0 RTS 44 [52e 11 0 0] 
s 0.002507516 _2_ RTR  --- 0 AOMDV 52 [0 ffffffff 0 800] ------- [2:255 -1:255 29 0] [0x2 1 1 [17 0] [0 4]] (REQUEST)
r 0.002766599 _17_ MAC  --- 0 RTS 44 [52e 11 0 0] 
s 0.002776599 _17_ MAC  --- 0 CTS 38 [3f4 0 0 0] 
s 0.002853059 _8_ RTR  --- 0 AOMDV 52 [0 ffffffff 0 800] ------- [8:255 -1:255 29 0] [0x2 1 1 [17 0] [0 4]] (REQUEST)
r 0.003081132 _0_ MAC  --- 0 CTS 38 [3f4 0 0 0] 
s 0.003091132 _0_ MAC  --- 0 ARP 86 [13a 11 0 806] ------- [REPLY 0/0 17/17]
s 0.003329905 _15_ RTR  --- 0 AOMDV 52 [0 ffffffff 0 800] ------- [15:255 -1:255 29 0] [0x2 1 1 [17 0] [0 4]] (REQUEST)
s 0.003448531 _1_ RTR  --- 0 AOMDV 52 [0 ffffffff 0 800] ------- [1:255 -1:255 29 0] [0x2 1 1 [17 0] [0 4]] (REQUEST)
r 0.003779665 _17_ MAC  --- 0 ARP 28 [13a 11 0 806] ------- [REPLY 0/0 17/17]
s 0.003789665 _17_ MAC  --- 0 ACK 38 [0 0 0 0] 
s 0.004015277 _5_ RTR  --- 0 AOMDV 52 [0 ffffffff 0 800] ------- [5:255 -1:255 29 0] [0x2 1 1 [17 0] [0 4]] (REQUEST)
r 0.004094198 _0_ MAC  --- 0 ACK 38 [0 0 0 0] 
s 0.004205278 _10_ MAC  --- 0 AOMDV 110 [0 ffffffff a 800] ------- [10:255 -1:255 29 0] [0x2 1 1 [17 0] [0 4]] (REQUEST)
s 0.004739487 _12_ RTR  --- 0 AOMDV 52 [0 ffffffff 0 800] ------- [12:255 -1:255 29 0] [0x2 1 1 [17 0] [0 4]] (REQUEST)
s 0.004792277 _20_ RTR  --- 0 AOMDV 52 [0 ffffffff 0 800] ------- [20:255 -1:255 29 0] [0x2 1 1 [17 0] [0 4]] (REQUEST)
s 0.004992780 _16_ RTR  --- 0 AOMDV 52 [0 ffffffff 0 800] ------- [16:255 -1:255 29 0] [0x2 1 1 [17 0] [0 4]] (REQUEST)
r 0.005085776 _7_ MAC  --- 0 AOMDV 52 [0 ffffffff a 800] ------- [10:255 -1:255 29 0] [0x2 1 1 [17 0] [0 4]] (REQUEST)
r 0.005085809 _12_ MAC  --- 0 AOMDV 52 [0 ffffffff a 800] ------- [10:255 -1:255 29 0] [0x2 1 1 [17 0] [0 4]] (REQUEST)
r 0.005085939 _11_ MAC  --- 0 AOMDV 52 [0 ffffffff a 800] ------- [10:255 -1:255 29 0] [0x2 1 1 [17 0] [0 4]] (REQUEST)
r 0.005085966 _5_ MAC  --- 0 AOMDV 52 [0 ffffffff a 800] ------- [10:255 -1:255 29 0] [0x2 1 1 [17 0] [0 4]] (REQUEST)
r 0.005086123 _6_ MAC  --- 0 AOMDV 52 [0 ffffffff a 800] ------- [10:255 -1:255 29 0] [0x2 1 1 [17 0] [0 4]] (REQUEST)
r 0.005086266 _18_ MAC  --- 0 AOMDV 52 [0 ffffffff a 800] ------- [10:255 -1:255 29 0] [0x2 1 1 [17 0] [0 4]] (REQUEST)
r 0.005086384 _19_ MAC  --- 0 AOMDV 52 [0 ffffffff a 800] ------- [10:255 -1:255 29 0] [0x2 1 1 [17 0] [0 4]] (REQUEST)
r 0.005086403 _4_ MAC  --- 0 AOMDV 52 [0 ffffffff a 800] ------- [10:255 -1:255 29 0] [0x2 1 1 [17 0] [0 4]] (REQUEST)
r 0.005086406 _0_ MAC  --- 0 AOMDV 52 [0 ffffffff a 800] ------- [10:255 -1:255 29 0] [0x2 1 1 [17 0] [0 4]] (REQUEST)
r 0.005086470 _13_ MAC  --- 0 AOMDV 52 [0 ffffffff a 800] ------- [10:255 -1:255 29 0] [0x2 1 1 [17 0] [0 4]] (REQUEST)
r 0.005086663 _3_ MAC  --- 0 AOMDV 52 [0 ffffffff a 800] ------- [10:255 -1:255 29 0] [0x2 1 1 [17 0] [0 4]] (REQUEST)
r 0.005086703 _21_ MAC  --- 0 AOMDV 52 [0 ffffffff a 800] ------- [10:255 -1:255 29 0] [0x2 1 1 [17 0] [0 4]] (REQUEST)
r 0.005086810 _8_ MAC  --- 0 AOMDV 52 [0 ffffffff a 800] ------- [10:255 -1:255 29 0] [0x2 1 1 [17 0] [0 4]] (REQUEST)
r 0.005086862 _20_ MAC  --- 0 AOMDV 52 [0 ffffffff a 800] ------- [10:255 -1:255 29 0] [0x2 1 1 [17 0] [0 4]] (REQUEST)
r 0.005086868 _14_ MAC  --- 0 AOMDV 52 [0 ffffffff a 800] ------- [10:255 -1:255 29 0] [0x2 1 1 [17 0] [0 4]] (REQUEST)
r 0.005086891 _17_ MAC  --- 0 AOMDV 52 [0 ffffffff a 800] ------- [10:255 -1:255 29 0] [0x2 1 1 [17 0] [0 4]] (REQUEST)
r 0.005086957 _1_ MAC  --- 0 AOMDV 52 [0 ffffffff a 800] ------- [10:255 -1:255 29 0] [0x2 1 1 [17 0] [0 4]] (REQUEST)
r 0.005087089 _2_ MAC  --- 0 AOMDV 52 [0 ffffffff a 800] ------- [10:255 -1:255 29 0] [0x2 1 1 [17 0] [0 4]] (REQUEST)
r 0.005087119 _16_ MAC  --- 0 AOMDV 52 [0 ffffffff a 800] ------- [10:255 -1:255 29 0] [0x2 1 1 [17 0] [0 4]] (REQUEST)
r 0.005087254 _9_ MAC  --- 0 AOMDV 52 [0 ffffffff a 800] ------- [10:255 -1:255 29 0] [0x2 1 1 [17 0] [0 4]] (REQUEST)
r 0.005087294 _15_ MAC  --- 0 AOMDV 52 [0 ffffffff a 800] ------- [10:255 -1:255 29 0] [0x2 1 1 [17 0] [0 4]] (REQUEST)
r 0.005110776 _7_ RTR  --- 0 AOMDV 52 [0 ffffffff a 800] ------- [10:255 -1:255 29 0] [0x2 1 1 [17 0] [0 4]] (REQUEST)
r 0.005110809 _12_ RTR  --- 0 AOMDV 52 [0 ffffffff a 800] ------- [10:255 -1:255 29 0] [0x2 1 1 [17 0] [0 4]] (REQUEST)
r 0.005110939 _11_ RTR  --- 0 AOMDV 52 [0 ffffffff a 800] ------- [10:255 -1:255 29 0] [0x2 1 1 [17 0] [0 4]] (REQUEST)
r 0.005110966 _5_ RTR  --- 0 AOMDV 52 [0 ffffffff a 800] ------- [10:255 -1:255 29 0] [0x2 1 1 [17 0] [0 4]] (REQUEST)
r 0.005111123 _6_ RTR  --- 0 AOMDV 52 [0 ffffffff a 800] ------- [10:255 -1:255 29 0] [0x2 1 1 [17 0] [0 4]] (REQUEST)
r 0.005111266 _18_ RTR  --- 0 AOMDV 52 [0 ffffffff a 800] ------- [10:255 -1:255 29 0] [0x2 1 1 [17 0] [0 4]] (REQUEST)
r 0.005111384 _19_ RTR  --- 0 AOMDV 52 [0 ffffffff a 800] ------- [10:255 -1:255 29 0] [0x2 1 1 [17 0] [0 4]] (REQUEST)
r 0.005111403 _4_ RTR  --- 0 AOMDV 52 [0 ffffffff a 800] ------- [10:255 -1:255 29 0] [0x2 1 1 [17 0] [0 4]] (REQUEST)
r 0.005111406 _0_ RTR  --- 0 AOMDV 52 [0 ffffffff a 800] ------- [10:255 -1:255 29 0] [0x2 1 1 [17 0] [0 4]] (REQUEST)
r 0.005111470 _13_ RTR  --- 0 AOMDV 52 [0 ffffffff a 800] ------- [10:255 -1:255 29 0] [0x2 1 1 [17 0] [0 4]] (REQUEST)
r 0.005111663 _3_ RTR  --- 0 AOMDV 52 [0 ffffffff a 800] ------- [10:255 -1:255 29 0] [0x2 1 1 [17 0] [0 4]] (REQUEST)
r 0.005111703 _21_ RTR  --- 0 AOMDV 52 [0 ffffffff a 800] ------- [10:255 -1:255 29 0] [0x2 1 1 [17 0] [0 4]] (REQUEST)
r 0.005111810 _8_ RTR  --- 0 AOMDV 52 [0 ffffffff a 800] ------- [10:255 -1:255 29 0] [0x2 1 1 [17 0] [0 4]] (REQUEST)
r 0.005111862 _20_ RTR  --- 0 AOMDV 52 [0 ffffffff a 800] ------- [10:255 -1:255 29 0] [0x2 1 1 [17 0] [0 4]] (REQUEST)
r 0.005111868 _14_ RTR  --- 0 AOMDV 52 [0 ffffffff a 800] ------- [10:255 -1:255 29 0] [0x2 1 1 [17 0] [0 4]] (REQUEST)
r 0.005111891 _17_ RTR  --- 0 AOMDV 52 [0 ffffffff a 800] ------- [10:255 -1:255 29 0] [0x2 1 1 [17 0] [0 4]] (REQUEST)
s 0.005111891 _17_ RTR  --- 0 AOMDV 52 [0 0 0 0] ------- [17:255 0:255 30 10] [0x4 0 [17 2] 10.000000] (REPLY) [1 10]
r 0.005111957 _1_ RTR  --- 0 AOMDV 52 [0 ffffffff a 800] ------- [10:255 -1:255 29 0] [0x2 1 1 [17 0] [0 4]] (REQUEST)
r 0.005112089 _2_ RTR  --- 0 AOMDV 52 [0 ffffffff a 800] ------- [10:255 -1:255 29 0] [0x2 1 1 [17 0] [0 4]] (REQUEST)
r 0.005112119 _16_ RTR  --- 0 AOMDV 52 [0 ffffffff a 800] ------- [10:255 -1:255 29 0] [0x2 1 1 [17 0] [0 4]] (REQUEST)
r 0.005112254 _9_ RTR  --- 0 AOMDV 52 [0 ffffffff a 800] ------- [10:255 -1:255 29 0] [0x2 1 1 [17 0] [0 4]] (REQUEST)
r 0.005112294 _15_ RTR  --- 0 AOMDV 52 [0 ffffffff a 800] ------- [10:255 -1:255 29 0] [0x2 1 1 [17 0] [0 4]] (REQUEST)
s 0.005197119 _16_ MAC  --- 0 AOMDV 110 [0 ffffffff 10 800] ------- [16:255 -1:255 29 0] [0x2 1 1 [17 0] [0 4]] (REQUEST)
s 0.005879487 _11_ RTR  --- 0 AOMDV 52 [0 ffffffff 0 800] ------- [11:255 -1:255 29 0] [0x2 1 1 [17 0] [0 4]] (REQUEST)
r 0.006077413 _17_ MAC  --- 0 AOMDV 52 [0 ffffffff 10 800] ------- [16:255 -1:255 29 0] [0x2 1 1 [17 0] [0 4]] (REQUEST)
r 0.006077597 _15_ MAC  --- 0 AOMDV 52 [0 ffffffff 10 800] ------- [16:255 -1:255 29 0] [0x2 1 1 [17 0] [0 4]] (REQUEST)
r 0.006077607 _14_ MAC  --- 0 AOMDV 52 [0 ffffffff 10 800] ------- [16:255 -1:255 29 0] [0x2 1 1 [17 0] [0 4]] (REQUEST)
r 0.006077836 _0_ MAC  --- 0 AOMDV 52 [0 ffffffff 10 800] ------- [16:255 -1:255 29 0] [0x2 1 1 [17 0] [0 4]] (REQUEST)
r 0.006078050 _8_ MAC  --- 0 AOMDV 52 [0 ffffffff 10 800] ------- [16:255 -1:255 29 0] [0x2 1 1 [17 0] [0 4]] (REQUEST)
r 0.006078137 _13_ MAC  --- 0 AOMDV 52 [0 ffffffff 10 800] ------- [16:255 -1:255 29 0] [0x2 1 1 [17 0] [0 4]] (REQUEST)
r 0.006078149 _9_ MAC  --- 0 AOMDV 52 [0 ffffffff 10 800] ------- [16:255 -1:255 29 0] [0x2 1 1 [17 0] [0 4]] (REQUEST)
r 0.006078156 _21_ MAC  --- 0 AOMDV 52 [0 ffffffff 10 800] ------- [16:255 -1:255 29 0] [0x2 1 1 [17 0] [0 4]] (REQUEST)
r 0.006078321 _11_ MAC  --- 0 AOMDV 52 [0 ffffffff 10 800] ------- [16:255 -1:255 29 0] [0x2 1 1 [17 0] [0 4]] (REQUEST)
r 0.006078348 _18_ MAC  --- 0 AOMDV 52 [0 ffffffff 10 800] ------- [16:255 -1:255 29 0] [0x2 1 1 [17 0] [0 4]] (REQUEST)
r 0.006078541 _6_ MAC  --- 0 AOMDV 52 [0 ffffffff 10 800] ------- [16:255 -1:255 29 0] [0x2 1 1 [17 0] [0 4]] (REQUEST)
r 0.006078569 _3_ MAC  --- 0 AOMDV 52 [0 ffffffff 10 800] ------- [16:255 -1:255 29 0] [0x2 1 1 [17 0] [0 4]] (REQUEST)
r 0.006078611 _7_ MAC  --- 0 AOMDV 52 [0 ffffffff 10 800] ------- [16:255 -1:255 29 0] [0x2 1 1 [17 0] [0 4]] (REQUEST)
r 0.006078669 _2_ MAC  --- 0 AOMDV 52 [0 ffffffff 10 800] ------- [16:255 -1:255 29 0] [0x2 1 1 [17 0] [0 4]] (REQUEST)
r 0.006078870 _20_ MAC  --- 0 AOMDV 52 [0 ffffffff 10 800] ------- [16:255 -1:255 29 0] [0x2 1 1 [17 0] [0 4]] (REQUEST)
r 0.006078936 _12_ MAC  --- 0 AOMDV 52 [0 ffffffff 10 800] ------- [16:255 -1:255 29 0] [0x2 1 1 [17 0] [0 4]] (REQUEST)
r 0.006078959 _10_ MAC  --- 0 AOMDV 52 [0 ffffffff 10 800] ------- [16:255 -1:255 29 0] [0x2 1 1 [17 0] [0 4]] (REQUEST)
r 0.006078961 _4_ MAC  --- 0 AOMDV 52 [0 ffffffff 10 800] ------- [16:255 -1:255 29 0] [0x2 1 1 [17 0] [0 4]] (REQUEST)
r 0.006078998 _5_ MAC  --- 0 AOMDV 52 [0 ffffffff 10 800] ------- [16:255 -1:255 29 0] [0x2 1 1 [17 0] [0 4]] (REQUEST)
r 0.006079036 _19_ MAC  --- 0 AOMDV 52 [0 ffffffff 10 800] ------- [16:255 -1:255 29 0] [0x2 1 1 [17 0] [0 4]] (REQUEST)
r 0.006079113 _1_ MAC  --- 0 AOMDV 52 [0 ffffffff 10 800] ------- [16:255 -1:255 29 0] [0x2 1 1 [17 0] [0 4]] (REQUEST)
r 0.006102413 _17_ RTR  --- 0 AOMDV 52 [0 ffffffff 10 800] ------- [16:255 -1:255 29 0] [0x2 1 1 [17 0] [0 4]] (REQUEST)
s 0.006102413 _17_ RTR  --- 0 AOMDV 52 [0 0 0 0] ------- [17:255 0:255 30 16] [0x4 0 [17 2] 10.000000] (REPLY) [1 16]
r 0.006102597 _15_ RTR  --- 0 AOMDV 52 [0 ffffffff 10 800] ------- [16:255 -1:255 29 0] [0x2 1 1 [17 0] [0 4]] (REQUEST)
r 0.006102607 _14_ RTR  --- 0 AOMDV 52 [0 ffffffff 10 800] ------- [16:255 -1:255 29 0] [0x2 1 1 [17 0] [0 4]] (REQUEST)
r 0.006102836 _0_ RTR  --- 0 AOMDV 52 [0 ffffffff 10 800] ------- [16:255 -1:255 29 0] [0x2 1 1 [17 0] [0 4]] (REQUEST)
r 0.006103050 _8_ RTR  --- 0 AOMDV 52 [0 ffffffff 10 800] ------- [16:255 -1:255 29 0] [0x2 1 1 [17 0] [0 4]] (REQUEST)
r 0.006103137 _13_ RTR  --- 0 AOMDV 52 [0 ffffffff 10 800] ------- [16:255 -1:255 29 0] [0x2 1 1 [17 0] [0 4]] (REQUEST)
r 0.006103149 _9_ RTR  --- 0 AOMDV 52 [0 ffffffff 10 800] ------- [16:255 -1:255 29 0] [0x2 1 1 [17 0] [0 4]] (REQUEST)
r 0.006103156 _21_ RTR  --- 0 AOMDV 52 [0 ffffffff 10 800] ------- [16:255 -1:255 29 0] [0x2 1 1 [17 0] [0 4]] (REQUEST)
r 0.006103321 _11_ RTR  --- 0 AOMDV 52 [0 ffffffff 10 800] ------- [16:255 -1:255 29 0] [0x2 1 1 [17 0] [0 4]] (REQUEST)
r 0.006103348 _18_ RTR  --- 0 AOMDV 52 [0 ffffffff 10 800] ------- [16:255 -1:255 29 0] [0x2 1 1 [17 0] [0 4]] (REQUEST)
r 0.006103541 _6_ RTR  --- 0 AOMDV 52 [0 ffffffff 10 800] ------- [16:255 -1:255 29 0] [0x2 1 1 [17 0] [0 4]] (REQUEST)
r 0.006103569 _3_ RTR  --- 0 AOMDV 52 [0 ffffffff 10 800] ------- [16:255 -1:255 29 0] [0x2 1 1 [17 0] [0 4]] (REQUEST)
r 0.006103611 _7_ RTR  --- 0 AOMDV 52 [0 ffffffff 10 800] ------- [16:255 -1:255 29 0] [0x2 1 1 [17 0] [0 4]] (REQUEST)
r 0.006103669 _2_ RTR  --- 0 AOMDV 52 [0 ffffffff 10 800] ------- [16:255 -1:255 29 0] [0x2 1 1 [17 0] [0 4]] (REQUEST)
r 0.006103870 _20_ RTR  --- 0 AOMDV 52 [0 ffffffff 10 800] ------- [16:255 -1:255 29 0] [0x2 1 1 [17 0] [0 4]] (REQUEST)
r 0.006103936 _12_ RTR  --- 0 AOMDV 52 [0 ffffffff 10 800] ------- [16:255 -1:255 29 0] [0x2 1 1 [17 0] [0 4]] (REQUEST)
r 0.006103959 _10_ RTR  --- 0 AOMDV 52 [0 ffffffff 10 800] ------- [16:255 -1:255 29 0] [0x2 1 1 [17 0] [0 4]] (REQUEST)
r 0.006103961 _4_ RTR  --- 0 AOMDV 52 [0 ffffffff 10 800] ------- [16:255 -1:255 29 0] [0x2 1 1 [17 0] [0 4]] (REQUEST)
r 0.006103998 _5_ RTR  --- 0 AOMDV 52 [0 ffffffff 10 800] ------- [16:255 -1:255 29 0] [0x2 1 1 [17 0] [0 4]] (REQUEST)
r 0.006104036 _19_ RTR  --- 0 AOMDV 52 [0 ffffffff 10 800] ------- [16:255 -1:255 29 0] [0x2 1 1 [17 0] [0 4]] (REQUEST)
r 0.006104113 _1_ RTR  --- 0 AOMDV 52 [0 ffffffff 10 800] ------- [16:255 -1:255 29 0] [0x2 1 1 [17 0] [0 4]] (REQUEST)
s 0.006147413 _17_ MAC  --- 0 RTS 44 [5ee 0 11 0] 
s 0.006478173 _6_ RTR  --- 0 AOMDV 52 [0 ffffffff 0 800] ------- [6:255 -1:255 29 0] [0x2 1 1 [17 0] [0 4]] (REQUEST)
r 0.006499946 _0_ MAC  --- 0 RTS 44 [5ee 0 11 0] 
s 0.006509946 _0_ MAC  --- 0 CTS 38 [4b4 11 0 0] 
r 0.006814479 _17_ MAC  --- 0 CTS 38 [4b4 11 0 0] 
s 0.006824479 _17_ MAC  --- 0 AOMDV 110 [13a 0 11 800] ------- [17:255 0:255 30 0] [0x4 0 [17 2] 10.000000] (REPLY) [1 0]
s 0.006855003 _19_ RTR  --- 0 AOMDV 52 [0 ffffffff 0 800] ------- [19:255 -1:255 29 0] [0x2 1 1 [17 0] [0 4]] (REQUEST)
s 0.006891046 _4_ RTR  --- 0 AOMDV 52 [0 ffffffff 0 800] ------- [4:255 -1:255 29 0] [0x2 1 1 [17 0] [0 4]] (REQUEST)
r 0.007705012 _0_ MAC  --- 0 AOMDV 52 [13a 0 11 800] ------- [17:255 0:255 30 0] [0x4 0 [17 2] 10.000000] (REPLY) [1 0]
s 0.007715012 _0_ MAC  --- 0 ACK 38 [0 11 0 0] 
r 0.007730012 _0_ RTR  --- 0 AOMDV 52 [13a 0 11 800] ------- [17:255 0:255 30 0] [0x4 0 [17 2] 10.000000] (REPLY) [1 0]
s 0.007730012 _0_ RTR  --- 0 cbr 1020 [0 0 0 0] ------- [0:0 17:0 30 17] [0] 0 0
r 0.008019545 _17_ MAC  --- 0 ACK 38 [0 11 0 0] 
s 0.008089809 _6_ MAC  --- 0 AOMDV 110 [0 ffffffff 6 800] ------- [6:255 -1:255 29 0] [0x2 1 1 [17 0] [0 4]] (REQUEST)
s 0.008177109 _14_ RTR  --- 0 AOMDV 52 [0 ffffffff 0 800] ------- [14:255 -1:255 29 0] [0x2 1 1 [17 0] [0 4]] (REQUEST)
s 0.008575188 _13_ RTR  --- 0 AOMDV 52 [0 ffffffff 0 800] ------- [13:255 -1:255 29 0] [0x2 1 1 [17 0] [0 4]] (REQUEST)
s 0.008763700 _9_ RTR  --- 0 AOMDV 52 [0 ffffffff 0 800] ------- [9:255 -1:255 29 0] [0x2 1 1 [17 0] [0 4]] (REQUEST)
s 0.008913693 _18_ RTR  --- 0 AOMDV 52 [0 ffffffff 0 800] ------- [18:255 -1:255 29 0] [0x2 1 1 [17 0] [0 4]] (REQUEST)
r 0.008970169 _7_ MAC  --- 0 AOMDV 52 [0 ffffffff 6 800] ------- [6:255 -1:255 29 0] [0x2 1 1 [17 0] [0 4]] (REQUEST)
r 0.008970269 _13_ MAC  --- 0 AOMDV 52 [0 ffffffff 6 800] ------- [6:255 -1:255 29 0] [0x2 1 1 [17 0] [0 4]] (REQUEST)
r 0.008970287 _5_ MAC  --- 0 AOMDV 52 [0 ffffffff 6 800] ------- [6:255 -1:255 29 0] [0x2 1 1 [17 0] [0 4]] (REQUEST)
r 0.008970305 _4_ MAC  --- 0 AOMDV 52 [0 ffffffff 6 800] ------- [6:255 -1:255 29 0] [0x2 1 1 [17 0] [0 4]] (REQUEST)
r 0.008970352 _3_ MAC  --- 0 AOMDV 52 [0 ffffffff 6 800] ------- [6:255 -1:255 29 0] [0x2 1 1 [17 0] [0 4]] (REQUEST)
r 0.008970580 _8_ MAC  --- 0 AOMDV 52 [0 ffffffff 6 800] ------- [6:255 -1:255 29 0] [0x2 1 1 [17 0] [0 4]] (REQUEST)
r 0.008970580 _11_ MAC  --- 0 AOMDV 52 [0 ffffffff 6 800] ------- [6:255 -1:255 29 0] [0x2 1 1 [17 0] [0 4]] (REQUEST)
r 0.008970606 _0_ MAC  --- 0 AOMDV 52 [0 ffffffff 6 800] ------- [6:255 -1:255 29 0] [0x2 1 1 [17 0] [0 4]] (REQUEST)
r 0.008970654 _10_ MAC  --- 0 AOMDV 52 [0 ffffffff 6 800] ------- [6:255 -1:255 29 0] [0x2 1 1 [17 0] [0 4]] (REQUEST)
r 0.008970747 _1_ MAC  --- 0 AOMDV 52 [0 ffffffff 6 800] ------- [6:255 -1:255 29 0] [0x2 1 1 [17 0] [0 4]] (REQUEST)
r 0.008970776 _2_ MAC  --- 0 AOMDV 52 [0 ffffffff 6 800] ------- [6:255 -1:255 29 0] [0x2 1 1 [17 0] [0 4]] (REQUEST)
r 0.008970816 _14_ MAC  --- 0 AOMDV 52 [0 ffffffff 6 800] ------- [6:255 -1:255 29 0] [0x2 1 1 [17 0] [0 4]] (REQUEST)
r 0.008971003 _9_ MAC  --- 0 AOMDV 52 [0 ffffffff 6 800] ------- [6:255 -1:255 29 0] [0x2 1 1 [17 0] [0 4]] (REQUEST)
r 0.008971050 _12_ MAC  --- 0 AOMDV 52 [0 ffffffff 6 800] ------- [6:255 -1:255 29 0] [0x2 1 1 [17 0] [0 4]] (REQUEST)
r 0.008971069 _18_ MAC  --- 0 AOMDV 52 [0 ffffffff 6 800] ------- [6:255 -1:255 29 0] [0x2 1 1 [17 0] [0 4]] (REQUEST)
r 0.008971122 _17_ MAC  --- 0 AOMDV 52 [0 ffffffff 6 800] ------- [6:255 -1:255 29 0] [0x2 1 1 [17 0] [0 4]] (REQUEST)
r 0.008971216 _15_ MAC  --- 0 AOMDV 52 [0 ffffffff 6 800] ------- [6:255 -1:255 29 0] [0x2 1 1 [17 0] [0 4]] (REQUEST)
r 0.008971231 _16_ MAC  --- 0 AOMDV 52 [0 ffffffff 6 800] ------- [6:255 -1:255 29 0] [0x2 1 1 [17 0] [0 4]] (REQUEST)
r 0.008971364 _21_ MAC  --- 0 AOMDV 52 [0 ffffffff 6 800] ------- [6:255 -1:255 29 0] [0x2 1 1 [17 0] [0 4]] (REQUEST)
r 0.008971542 _19_ MAC  --- 0 AOMDV 52 [0 ffffffff 6 800] ------- [6:255 -1:255 29 0] [0x2 1 1 [17 0] [0 4]] (REQUEST)
r 0.008971833 _20_ MAC  --- 0 AOMDV 52 [0 ffffffff 6 800] ------- [6:255 -1:255 29 0] [0x2 1 1 [17 0] [0 4]] (REQUEST)
r 0.008995169 _7_ RTR  --- 0 AOMDV 52 [0 ffffffff 6 800] ------- [6:255 -1:255 29 0] [0x2 1 1 [17 0] [0 4]] (REQUEST)
r 0.008995269 _13_ RTR  --- 0 AOMDV 52 [0 ffffffff 6 800] ------- [6:255 -1:255 29 0] [0x2 1 1 [17 0] [0 4]] (REQUEST)
r 0.008995287 _5_ RTR  --- 0 AOMDV 52 [0 ffffffff 6 800] ------- [6:255 -1:255 29 0] [0x2 1 1 [17 0] [0 4]] (REQUEST)
r 0.008995305 _4_ RTR  --- 0 AOMDV 52 [0 ffffffff 6 800] ------- [6:255 -1:255 29 0] [0x2 1 1 [17 0] [0 4]] (REQUEST)
r 0.008995352 _3_ RTR  --- 0 AOMDV 52 [0 ffffffff 6 800] ------- [6:255 -1:255 29 0] [0x2 1 1 [17 0] [0 4]] (REQUEST)
r 0.008995580 _8_ RTR  --- 0 AOMDV 52 [0 ffffffff 6 800] ------- [6:255 -1:255 29 0] [0x2 1 1 [17 0] [0 4]] (REQUEST)
r 0.008995580 _11_ RTR  --- 0 AOMDV 52 [0 ffffffff 6 800] ------- [6:255 -1:255 29 0] [0x2 1 1 [17 0] [0 4]] (REQUEST)
r 0.008995606 _0_ RTR  --- 0 AOMDV 52 [0 ffffffff 6 800] ------- [6:255 -1:255 29 0] [0x2 1 1 [17 0] [0 4]] (REQUEST)
r 0.008995654 _10_ RTR  --- 0 AOMDV 52 [0 ffffffff 6 800] ------- [6:255 -1:255 29 0] [0x2 1 1 [17 0] [0 4]] (REQUEST)
r 0.008995747 _1_ RTR  --- 0 AOMDV 52 [0 ffffffff 6 800] ------- [6:255 -1:255 29 0] [0x2 1 1 [17 0] [0 4]] (REQUEST)
r 0.008995776 _2_ RTR  --- 0 AOMDV 52 [0 ffffffff 6 800] ------- [6:255 -1:255 29 0] [0x2 1 1 [17 0] [0 4]] (REQUEST)
r 0.008995816 _14_ RTR  --- 0 AOMDV 52 [0 ffffffff 6 800] ------- [6:255 -1:255 29 0] [0x2 1 1 [17 0] [0 4]] (REQUEST)
r 0.008996003 _9_ RTR  --- 0 AOMDV 52 [0 ffffffff 6 800] ------- [6:255 -1:255 29 0] [0x2 1 1 [17 0] [0 4]] (REQUEST)
r 0.008996050 _12_ RTR  --- 0 AOMDV 52 [0 ffffffff 6 800] ------- [6:255 -1:255 29 0] [0x2 1 1 [17 0] [0 4]] (REQUEST)
r 0.008996069 _18_ RTR  --- 0 AOMDV 52 [0 ffffffff 6 800] ------- [6:255 -1:255 29 0] [0x2 1 1 [17 0] [0 4]] (REQUEST)
r 0.008996122 _17_ RTR  --- 0 AOMDV 52 [0 ffffffff 6 800] ------- [6:255 -1:255 29 0] [0x2 1 1 [17 0] [0 4]] (REQUEST)
s 0.008996122 _17_ RTR  --- 0 AOMDV 52 [0 0 0 0] ------- [17:255 0:255 30 6] [0x4 0 [17 2] 10.000000] (REPLY) [1 6]
r 0.008996216 _15_ RTR  --- 0 AOMDV 52 [0 ffffffff 6 800] ------- [6:255 -1:255 29 0] [0x2 1 1 [17 0] [0 4]] (REQUEST)
r 0.008996231 _16_ RTR  --- 0 AOMDV 52 [0 ffffffff 6 800] ------- [6:255 -1:255 29 0] [0x2 1 1 [17 0] [0 4]] (REQUEST)
r 0.008996364 _21_ RTR  --- 0 AOMDV 52 [0 ffffffff 6 800] ------- [6:255 -1:255 29 0] [0x2 1 1 [17 0] [0 4]] (REQUEST)
r 0.008996542 _19_ RTR  --- 0 AOMDV 52 [0 ffffffff 6 800] ------- [6:255 -1:255 29 0] [0x2 1 1 [17 0] [0 4]] (REQUEST)
r 0.008996833 _20_ RTR  --- 0 AOMDV 52 [0 ffffffff 6 800] ------- [6:255 -1:255 29 0] [0x2 1 1 [17 0] [0 4]] (REQUEST)
s 0.009060352 _3_ MAC  --- 0 AOMDV 110 [0 ffffffff 3 800] ------- [3:255 -1:255 29 0] [0x2 1 1 [17 0] [0 4]] (REQUEST)
s 0.009061069 _18_ MAC  --- 0 AOMDV 110 [0 ffffffff 12 800] ------- [18:255 -1:255 29 0] [0x2 1 1 [17 0] [0 4]] (REQUEST)
D 0.009061831 _0_ MAC  COL 0 AOMDV 110 [0 ffffffff 3 800] ------- [3:255 -1:255 29 0] [0x2 1 1 [17 0] [0 4]] (REQUEST)
D 0.009062006 _17_ MAC  COL 0 AOMDV 110 [0 ffffffff 3 800] ------- [3:255 -1:255 29 0] [0x2 1 1 [17 0] [0 4]] (REQUEST)
D 0.009062057 _10_ MAC  COL 0 AOMDV 110 [0 ffffffff 3 800] ------- [3:255 -1:255 29 0] [0x2 1 1 [17 0] [0 4]] (REQUEST)
D 0.009062079 _7_ MAC  COL 0 AOMDV 110 [0 ffffffff 3 800] ------- [3:255 -1:255 29 0] [0x2 1 1 [17 0] [0 4]] (REQUEST)
D 0.009062298 _16_ MAC  COL 0 AOMDV 110 [0 ffffffff 3 800] ------- [3:255 -1:255 29 0] [0x2 1 1 [17 0] [0 4]] (REQUEST)
D 0.009062329 _14_ MAC  COL 0 AOMDV 110 [0 ffffffff 3 800] ------- [3:255 -1:255 29 0] [0x2 1 1 [17 0] [0 4]] (REQUEST)
D 0.009062534 _5_ MAC  COL 0 AOMDV 110 [0 ffffffff 3 800] ------- [3:255 -1:255 29 0] [0x2 1 1 [17 0] [0 4]] (REQUEST)
D 0.009062671 _15_ MAC  COL 0 AOMDV 110 [0 ffffffff 3 800] ------- [3:255 -1:255 29 0] [0x2 1 1 [17 0] [0 4]] (REQUEST)
r 0.009940778 _2_ MAC  --- 0 AOMDV 52 [0 ffffffff 3 800] ------- [3:255 -1:255 29 0] [0x2 1 1 [17 0] [0 4]] (REQUEST)
r 0.009940846 _13_ MAC  --- 0 AOMDV 52 [0 ffffffff 3 800] ------- [3:255 -1:255 29 0] [0x2 1 1 [17 0] [0 4]] (REQUEST)
r 0.009940880 _4_ MAC  --- 0 AOMDV 52 [0 ffffffff 3 800] ------- [3:255 -1:255 29 0] [0x2 1 1 [17 0] [0 4]] (REQUEST)
r 0.009940895 _6_ MAC  --- 0 AOMDV 52 [0 ffffffff 3 800] ------- [3:255 -1:255 29 0] [0x2 1 1 [17 0] [0 4]] (REQUEST)
r 0.009940897 _8_ MAC  --- 0 AOMDV 52 [0 ffffffff 3 800] ------- [3:255 -1:255 29 0] [0x2 1 1 [17 0] [0 4]] (REQUEST)
r 0.009940907 _1_ MAC  --- 0 AOMDV 52 [0 ffffffff 3 800] ------- [3:255 -1:255 29 0] [0x2 1 1 [17 0] [0 4]] (REQUEST)
r 0.009941177 _9_ MAC  --- 0 AOMDV 52 [0 ffffffff 3 800] ------- [3:255 -1:255 29 0] [0x2 1 1 [17 0] [0 4]] (REQUEST)
r 0.009941514 _21_ MAC  --- 0 AOMDV 52 [0 ffffffff 12 800] ------- [18:255 -1:255 29 0] [0x2 1 1 [17 0] [0 4]] (REQUEST)
r 0.009941561 _11_ MAC  --- 0 AOMDV 52 [0 ffffffff 12 800] ------- [18:255 -1:255 29 0] [0x2 1 1 [17 0] [0 4]] (REQUEST)
r 0.009941750 _12_ MAC  --- 0 AOMDV 52 [0 ffffffff 12 800] ------- [18:255 -1:255 29 0] [0x2 1 1 [17 0] [0 4]] (REQUEST)
r 0.009941765 _19_ MAC  --- 0 AOMDV 52 [0 ffffffff 12 800] ------- [18:255 -1:255 29 0] [0x2 1 1 [17 0] [0 4]] (REQUEST)
D 0.009941831 _0_ MAC  COL 0 AOMDV 110 [0 ffffffff 12 800] ------- [18:255 -1:255 29 0] [0x2 1 1 [17 0] [0 4]] (REQUEST)
r 0.009941840 _20_ MAC  --- 0 AOMDV 52 [0 ffffffff 12 800] ------- [18:255 -1:255 29 0] [0x2 1 1 [17 0] [0 4]] (REQUEST)
D 0.009942006 _17_ MAC  COL 0 AOMDV 110 [0 ffffffff 12 800] ------- [18:255 -1:255 29 0] [0x2 1 1 [17 0] [0 4]] (REQUEST)
D 0.009942057 _10_ MAC  COL 0 AOMDV 110 [0 ffffffff 12 800] ------- [18:255 -1:255 29 0] [0x2 1 1 [17 0] [0 4]] (REQUEST)
D 0.009942079 _7_ MAC  COL 0 AOMDV 110 [0 ffffffff 12 800] ------- [18:255 -1:255 29 0] [0x2 1 1 [17 0] [0 4]] (REQUEST)
D 0.009942298 _16_ MAC  COL 0 AOMDV 110 [0 ffffffff 12 800] ------- [18:255 -1:255 29 0] [0x2 1 1 [17 0] [0 4]] (REQUEST)
D 0.009942329 _14_ MAC  COL 0 AOMDV 110 [0 ffffffff 12 800] ------- [18:255 -1:255 29 0] [0x2 1 1 [17 0] [0 4]] (REQUEST)