n -t * -s 0  -x 513 -y 517 -Z 0 -z 70  -v circle -c black
n -t * -s 1  -x 36 -y 529 -Z 0 -z 70  -v circle -c black
n -t * -s 2  -x 143 -y 666 -Z 0 -z 70  -v circle -c black
n -t * -s 3  -x 201 -y 552 -Z 0 -z 70  -v circle -c black
n -t * -s 4  -x 147 -y 403 -Z 0 -z 70  -v circle -c black
n -t * -s 5  -x 230 -y 291 -Z 0 -z 70  -v circle -c black
n -t * -s 6  -x 295 -y 419 -Z 0 -z 70  -v circle -c black
n -t * -s 7  -x 363 -y 335 -Z 0 -z 70  -v circle -c black
n -t * -s 8  -x 334 -y 647 -Z 0 -z 70  -v circle -c black
n -t * -s 9  -x 304 -y 777 -Z 0 -z 70  -v circle -c black
n -t * -s 10  -x 412 -y 194 -Z 0 -z 70  -v circle -c black
n -t * -s 11  -x 519 -y 361 -Z 0 -z 70  -v circle -c black
n -t * -s 12  -x 569 -y 167 -Z 0 -z 70  -v circle -c black
n -t * -s 13  -x 349 -y 546 -Z 0 -z 70  -v circle -c black
n -t * -s 14  -x 466 -y 668 -Z 0 -z 70  -v circle -c black
n -t * -s 15  -x 489 -y 794 -Z 0 -z 70  -v circle -c black
n -t * -s 16  -x 606 -y 711 -Z 0 -z 70  -v circle -c black
n -t * -s 17  -x 630 -y 626 -Z 0 -z 70  -v circle -c black
n -t * -s 18  -x 666 -y 347 -Z 0 -z 70  -v circle -c black
n -t * -s 19  -x 741 -y 152 -Z 0 -z 70  -v circle -c black
n -t * -s 20  -x 882 -y 264 -Z 0 -z 70  -v circle -c black
n -t * -s 21  -x 761 -y 441 -Z 0 -z 70  -v circle -c black
V -t * -v 1.0a5 -a 0
W -t * -x 1000 -y 840
A -t * -n 1 -p 0 -o 0x7fffffff -c 30 -a 1
A -t * -h 1 -m 1073741823 -s 0
n -t 0 -s 0 -S DLABEL -l "node1" -L ""
n -t 0 -s 1 -S DLABEL -l "node2" -L ""
n -t 0 -s 2 -S DLABEL -l "node3" -L ""
n -t 0 -s 3 -S DLABEL -l "node4" -L ""
n -t 0 -s 4 -S DLABEL -l "node5" -L ""
n -t 0 -s 5 -S DLABEL -l "node6" -L ""
n -t 0 -s 6 -S DLABEL -l "node7" -L ""
n -t 0 -s 7 -S DLABEL -l "node8" -L ""
n -t 0 -s 8 -S DLABEL -l "node9" -L ""
n -t 0 -s 9 -S DLABEL -l "node10" -L ""
n -t 0 -s 10 -S DLABEL -l "node11" -L ""
n -t 0 -s 11 -S DLABEL -l "node12" -L ""
n -t 0 -s 12 -S DLABEL -l "node13" -L ""
n -t 0 -s 13 -S DLABEL -l "node14" -L ""
n -t 0 -s 14 -S DLABEL -l "node15" -L ""
n -t 0 -s 15 -S DLABEL -l "node16" -L ""
n -t 0 -s 16 -S DLABEL -l "node17" -L ""
n -t 0 -s 17 -S DLABEL -l "node18" -L ""
n -t 0 -s 18 -S DLABEL -l "node19" -L ""
n -t 0 -s 19 -S DLABEL -l "node20" -L ""
n -t 0 -s 20 -S DLABEL -l "node21" -L ""
n -t 0 -s 21 -S DLABEL -l "node22" -L ""
n -t 0 -s 0 -S COLOR -c green -o green -i green -I green
n -t 0 -s 1 -S COLOR -c green -o green -i green -I green
n -t 0 -s 2 -S COLOR -c green -o green -i green -I green
n -t 0 -s 3 -S COLOR -c green -o green -i green -I green
n -t 0 -s 4 -S COLOR -c green -o green -i green -I green
n -t 0 -s 5 -S COLOR -c green -o green -i green -I green
n -t 0 -s 6 -S COLOR -c green -o green -i green -I green
n -t 0 -s 7 -S COLOR -c green -o green -i green -I green
n -t 0 -s 8 -S COLOR -c yellow -o yellow -i yellow -I yellow
n -t 0 -s 9 -S COLOR -c yellow -o yellow -i yellow -I yellow
n -t 0 -s 10 -S COLOR -c yellow -o yellow -i yellow -I yellow
n -t 0 -s 11 -S COLOR -c pink -o pink -i pink -I pink
n -t 0 -s 12 -S COLOR -c pink -o pink -i pink -I pink
n -t 0 -s 13 -S COLOR -c pink -o pink -i pink -I pink
n -t 0 -s 14 -S COLOR -c pink -o pink -i pink -I pink
n -t 0 -s 15 -S COLOR -c pink -o pink -i pink -I pink
n -t 0 -s 16 -S COLOR -c orange -o orange -i orange -I orange
n -t 0 -s 17 -S COLOR -c orange -o orange -i orange -I orange
n -t 0 -s 18 -S COLOR -c orange -o orange -i orange -I orange
n -t 0 -s 19 -S COLOR -c orange -o orange -i orange -I orange
n -t 0 -s 20 -S COLOR -c orange -o orange -i orange -I orange
n -t 0 -s 21 -S COLOR -c orange -o orange -i orange -I orange
v -t 0 set_rate_ext 0.014999999999999999 1
+ -t 0.000000000 -s 0 -d -1 -p cbr -e 1000 -c 2 -a 0 -i 0 -k AGT 
- -t 0.000000000 -s 0 -d -1 -p cbr -e 1000 -c 2 -a 0 -i 0 -k AGT
h -t 0.000000000 -s 0 -d -1 -p cbr -e 1000 -c 2 -a 0 -i 0 -k AGT
v -t 0 -e sim_annotation 0 1 MOBILE NODE MOVEMENTS
+ -t 0.000000000 -s 0 -d -1 -p AOMDV -e 52 -c 2 -a 0 -i 0 -k RTR 
- -t 0.000000000 -s 0 -d -1 -p AOMDV -e 52 -c 2 -a 0 -i 0 -k RTR
h -t 0.000000000 -s 0 -d -1 -p AOMDV -e 52 -c 2 -a 0 -i 0 -k RTR
+ -t 0.000415000 -s 0 -d -1 -p AOMDV -e 110 -c 2 -a 0 -i 0 -k MAC 
- -t 0.000415000 -s 0 -d -1 -p AOMDV -e 110 -c 2 -a 0 -i 0 -k MAC
h -t 0.000415000 -s 0 -d -1 -p AOMDV -e 110 -c 2 -a 0 -i 0 -k MAC
r -t 0.001295520 -s 11 -d -1 -p AOMDV -e 52 -c 2 -a 0 -i 0 -k MAC
r -t 0.001295527 -s 14 -d -1 -p AOMDV -e 52 -c 2 -a 0 -i 0 -k MAC
r -t 0.001295533 -s 17 -d -1 -p AOMDV -e 52 -c 2 -a 0 -i 0 -k MAC
r -t 0.001295555 -s 13 -d -1 -p AOMDV -e 52 -c 2 -a 0 -i 0 -k MAC
r -t 0.001295717 -s 16 -d -1 -p AOMDV -e 52 -c 2 -a 0 -i 0 -k MAC
r -t 0.001295737 -s 8 -d -1 -p AOMDV -e 52 -c 2 -a 0 -i 0 -k MAC
r -t 0.001295762 -s 18 -d -1 -p AOMDV -e 52 -c 2 -a 0 -i 0 -k MAC
r -t 0.001295786 -s 7 -d -1 -p AOMDV -e 52 -c 2 -a 0 -i 0 -k MAC
r -t 0.001295797 -s 6 -d -1 -p AOMDV -e 52 -c 2 -a 0 -i 0 -k MAC
r -t 0.001295865 -s 21 -d -1 -p AOMDV -e 52 -c 2 -a 0 -i 0 -k MAC
r -t 0.001295927 -s 15 -d -1 -p AOMDV -e 52 -c 2 -a 0 -i 0 -k MAC
r -t 0.001296047 -s 3 -d -1 -p AOMDV -e 52 -c 2 -a 0 -i 0 -k MAC
r -t 0.001296112 -s 9 -d -1 -p AOMDV -e 52 -c 2 -a 0 -i 0 -k MAC
r -t 0.001296128 -s 10 -d -1 -p AOMDV -e 52 -c 2 -a 0 -i 0 -k MAC
r -t 0.001296182 -s 12 -d -1 -p AOMDV -e 52 -c 2 -a 0 -i 0 -k MAC
r -t 0.001296207 -s 5 -d -1 -p AOMDV -e 52 -c 2 -a 0 -i 0 -k MAC
r -t 0.001296278 -s 4 -d -1 -p AOMDV -e 52 -c 2 -a 0 -i 0 -k MAC
r -t 0.001296330 -s 2 -d -1 -p AOMDV -e 52 -c 2 -a 0 -i 0 -k MAC
r -t 0.001296435 -s 19 -d -1 -p AOMDV -e 52 -c 2 -a 0 -i 0 -k MAC
r -t 0.001296491 -s 20 -d -1 -p AOMDV -e 52 -c 2 -a 0 -i 0 -k MAC
r -t 0.001296591 -s 1 -d -1 -p AOMDV -e 52 -c 2 -a 0 -i 0 -k MAC
r -t 0.001320520 -s 11 -d -1 -p AOMDV -e 52 -c 2 -a 0 -i 0 -k RTR
r -t 0.001320527 -s 14 -d -1 -p AOMDV -e 52 -c 2 -a 0 -i 0 -k RTR
r -t 0.001320533 -s 17 -d -1 -p AOMDV -e 52 -c 2 -a 0 -i 0 -k RTR
+ -t 0.001320533 -s 17 -d 0 -p AOMDV -e 52 -c 2 -a 0 -i 0 -k RTR 
- -t 0.001320533 -s 17 -d 0 -p AOMDV -e 52 -c 2 -a 0 -i 0 -k RTR
h -t 0.001320533 -s 17 -d 0 -p AOMDV -e 52 -c 2 -a 0 -i 0 -k RTR
r -t 0.001320555 -s 13 -d -1 -p AOMDV -e 52 -c 2 -a 0 -i 0 -k RTR
r -t 0.001320717 -s 16 -d -1 -p AOMDV -e 52 -c 2 -a 0 -i 0 -k RTR
r -t 0.001320737 -s 8 -d -1 -p AOMDV -e 52 -c 2 -a 0 -i 0 -k RTR
r -t 0.001320762 -s 18 -d -1 -p AOMDV -e 52 -c 2 -a 0 -i 0 -k RTR
r -t 0.001320786 -s 7 -d -1 -p AOMDV -e 52 -c 2 -a 0 -i 0 -k RTR
r -t 0.001320797 -s 6 -d -1 -p AOMDV -e 52 -c 2 -a 0 -i 0 -k RTR
r -t 0.001320865 -s 21 -d -1 -p AOMDV -e 52 -c 2 -a 0 -i 0 -k RTR
r -t 0.001320927 -s 15 -d -1 -p AOMDV -e 52 -c 2 -a 0 -i 0 -k RTR
r -t 0.001321047 -s 3 -d -1 -p AOMDV -e 52 -c 2 -a 0 -i 0 -k RTR
r -t 0.001321112 -s 9 -d -1 -p AOMDV -e 52 -c 2 -a 0 -i 0 -k RTR
r -t 0.001321128 -s 10 -d -1 -p AOMDV -e 52 -c 2 -a 0 -i 0 -k RTR
r -t 0.001321182 -s 12 -d -1 -p AOMDV -e 52 -c 2 -a 0 -i 0 -k RTR
r -t 0.001321207 -s 5 -d -1 -p AOMDV -e 52 -c 2 -a 0 -i 0 -k RTR
r -t 0.001321278 -s 4 -d -1 -p AOMDV -e 52 -c 2 -a 0 -i 0 -k RTR
r -t 0.001321330 -s 2 -d -1 -p AOMDV -e 52 -c 2 -a 0 -i 0 -k RTR
r -t 0.001321435 -s 19 -d -1 -p AOMDV -e 52 -c 2 -a 0 -i 0 -k RTR
r -t 0.001321491 -s 20 -d -1 -p AOMDV -e 52 -c 2 -a 0 -i 0 -k RTR
r -t 0.001321591 -s 1 -d -1 -p AOMDV -e 52 -c 2 -a 0 -i 0 -k RTR
+ -t 0.001575533 -s 17 -d -1 -p ARP -e 86 -c 2 -a 0 -i 0 -k MAC 
- -t 0.001575533 -s 17 -d -1 -p ARP -e 86 -c 2 -a 0 -i 0 -k MAC
h -t 0.001575533 -s 17 -d -1 -p ARP -e 86 -c 2 -a 0 -i 0 -k MAC
+ -t 0.001612460 -s 7 -d -1 -p AOMDV -e 52 -c 2 -a 0 -i 0 -k RTR 
- -t 0.001612460 -s 7 -d -1 -p AOMDV -e 52 -c 2 -a 0 -i 0 -k RTR
h -t 0.001612460 -s 7 -d -1 -p AOMDV -e 52 -c 2 -a 0 -i 0 -k RTR
+ -t 0.001900467 -s 3 -d -1 -p AOMDV -e 52 -c 2 -a 0 -i 0 -k RTR 
- -t 0.001900467 -s 3 -d -1 -p AOMDV -e 52 -c 2 -a 0 -i 0 -k RTR
h -t 0.001900467 -s 3 -d -1 -p AOMDV -e 52 -c 2 -a 0 -i 0 -k RTR
+ -t 0.002108722 -s 10 -d -1 -p AOMDV -e 52 -c 2 -a 0 -i 0 -k RTR 
- -t 0.002108722 -s 10 -d -1 -p AOMDV -e 52 -c 2 -a 0 -i 0 -k RTR
h -t 0.002108722 -s 10 -d -1 -p AOMDV -e 52 -c 2 -a 0 -i 0 -k RTR
r -t 0.002263827 -s 16 -d -1 -p ARP -e 28 -c 2 -a 0 -i 0 -k MAC
r -t 0.002264066 -s 0 -d -1 -p ARP -e 28 -c 2 -a 0 -i 0 -k MAC
r -t 0.002264097 -s 14 -d -1 -p ARP -e 28 -c 2 -a 0 -i 0 -k MAC
r -t 0.002264264 -s 15 -d -1 -p ARP -e 28 -c 2 -a 0 -i 0 -k MAC
r -t 0.002264289 -s 21 -d -1 -p ARP -e 28 -c 2 -a 0 -i 0 -k MAC
r -t 0.002264471 -s 18 -d -1 -p ARP -e 28 -c 2 -a 0 -i 0 -k MAC
r -t 0.002264491 -s 11 -d -1 -p ARP -e 28 -c 2 -a 0 -i 0 -k MAC
r -t 0.002264507 -s 13 -d -1 -p ARP -e 28 -c 2 -a 0 -i 0 -k MAC
r -t 0.002264522 -s 8 -d -1 -p ARP -e 28 -c 2 -a 0 -i 0 -k MAC
r -t 0.002264731 -s 9 -d -1 -p ARP -e 28 -c 2 -a 0 -i 0 -k MAC
r -t 0.002264846 -s 6 -d -1 -p ARP -e 28 -c 2 -a 0 -i 0 -k MAC
r -t 0.002264849 -s 7 -d -1 -p ARP -e 28 -c 2 -a 0 -i 0 -k MAC
r -t 0.002264984 -s 3 -d -1 -p ARP -e 28 -c 2 -a 0 -i 0 -k MAC
r -t 0.002265003 -s 20 -d -1 -p ARP -e 28 -c 2 -a 0 -i 0 -k MAC
r -t 0.002265076 -s 12 -d -1 -p ARP -e 28 -c 2 -a 0 -i 0 -k MAC
r -t 0.002265146 -s 10 -d -1 -p ARP -e 28 -c 2 -a 0 -i 0 -k MAC
r -t 0.002265156 -s 19 -d -1 -p ARP -e 28 -c 2 -a 0 -i 0 -k MAC
r -t 0.002265162 -s 2 -d -1 -p ARP -e 28 -c 2 -a 0 -i 0 -k MAC
r -t 0.002265272 -s 5 -d -1 -p ARP -e 28 -c 2 -a 0 -i 0 -k MAC
r -t 0.002265306 -s 4 -d -1 -p ARP -e 28 -c 2 -a 0 -i 0 -k MAC
r -t 0.002265539 -s 1 -d -1 -p ARP -e 28 -c 2 -a 0 -i 0 -k MAC
+ -t 0.002414066 -s 0 -d -1 -p RTS -e 44 -c 2 -a 0 -i 0 -k MAC 
- -t 0.002414066 -s 0 -d -1 -p RTS -e 44 -c 2 -a 0 -i 0 -k MAC
h -t 0.002414066 -s 0 -d -1 -p RTS -e 44 -c 2 -a 0 -i 0 -k MAC
+ -t 0.002507516 -s 2 -d -1 -p AOMDV -e 52 -c 2 -a 0 -i 0 -k RTR 
- -t 0.002507516 -s 2 -d -1 -p AOMDV -e 52 -c 2 -a 0 -i 0 -k RTR
h -t 0.002507516 -s 2 -d -1 -p AOMDV -e 52 -c 2 -a 0 -i 0 -k RTR
r -t 0.002766599 -s 17 -d -1 -p RTS -e 44 -c 2 -a 0 -i 0 -k MAC
+ -t 0.002776599 -s 17 -d -1 -p CTS -e 38 -c 2 -a 0 -i 0 -k MAC 
- -t 0.002776599 -s 17 -d -1 -p CTS -e 38 -c 2 -a 0 -i 0 -k MAC
h -t 0.002776599 -s 17 -d -1 -p CTS -e 38 -c 2 -a 0 -i 0 -k MAC
+ -t 0.002853059 -s 8 -d -1 -p AOMDV -e 52 -c 2 -a 0 -i 0 -k RTR 
- -t 0.002853059 -s 8 -d -1 -p AOMDV -e 52 -c 2 -a 0 -i 0 -k RTR
h -t 0.002853059 -s 8 -d -1 -p AOMDV -e 52 -c 2 -a 0 -i 0 -k RTR
r -t 0.003081132 -s 0 -d -1 -p CTS -e 38 -c 2 -a 0 -i 0 -k MAC
+ -t 0.003091132 -s 0 -d -1 -p ARP -e 86 -c 2 -a 0 -i 0 -k MAC 
- -t 0.003091132 -s 0 -d -1 -p ARP -e 86 -c 2 -a 0 -i 0 -k MAC
h -t 0.003091132 -s 0 -d -1 -p ARP -e 86 -c 2 -a 0 -i 0 -k MAC
+ -t 0.003329905 -s 15 -d -1 -p AOMDV -e 52 -c 2 -a 0 -i 0 -k RTR 
- -t 0.003329905 -s 15 -d -1 -p AOMDV -e 52 -c 2 -a 0 -i 0 -k RTR
h -t 0.003329905 -s 15 -d -1 -p AOMDV -e 52 -c 2 -a 0 -i 0 -k RTR
+ -t 0.003448531 -s 1 -d -1 -p AOMDV -e 52 -c 2 -a 0 -i 0 -k RTR 
- -t 0.003448531 -s 1 -d -1 -p AOMDV -e 52 -c 2 -a 0 -i 0 -k RTR
h -t 0.003448531 -s 1 -d -1 -p AOMDV -e 52 -c 2 -a 0 -i 0 -k RTR
r -t 0.003779665 -s 17 -d -1 -p ARP -e 28 -c 2 -a 0 -i 0 -k MAC
+ -t 0.003789665 -s 17 -d -1 -p ACK -e 38 -c 2 -a 0 -i 0 -k MAC 
- -t 0.003789665 -s 17 -d -1 -p ACK -e 38 -c 2 -a 0 -i 0 -k MAC
h -t 0.003789665 -s 17 -d -1 -p ACK -e 38 -c 2 -a 0 -i 0 -k MAC
+ -t 0.004015277 -s 5 -d -1 -p AOMDV -e 52 -c 2 -a 0 -i 0 -k RTR 
- -t 0.004015277 -s 5 -d -1 -p AOMDV -e 52 -c 2 -a 0 -i 0 -k RTR
h -t 0.004015277 -s 5 -d -1 -p AOMDV -e 52 -c 2 -a 0 -i 0 -k RTR
r -t 0.004094198 -s 0 -d -1 -p ACK -e 38 -c 2 -a 0 -i 0 -k MAC
+ -t 0.004205278 -s 10 -d -1 -p AOMDV -e 110 -c 2 -a 0 -i 0 -k MAC 
- -t 0.004205278 -s 10 -d -1 -p AOMDV -e 110 -c 2 -a 0 -i 0 -k MAC
h -t 0.004205278 -s 10 -d -1 -p AOMDV -e 110 -c 2 -a 0 -i 0 -k MAC
+ -t 0.004739487 -s 12 -d -1 -p AOMDV -e 52 -c 2 -a 0 -i 0 -k RTR 
- -t 0.004739487 -s 12 -d -1 -p AOMDV -e 52 -c 2 -a 0 -i 0 -k RTR
h -t 0.004739487 -s 12 -d -1 -p AOMDV -e 52 -c 2 -a 0 -i 0 -k RTR
+ -t 0.004792277 -s 20 -d -1 -p AOMDV -e 52 -c 2 -a 0 -i 0 -k RTR 
- -t 0.004792277 -s 20 -d -1 -p AOMDV -e 52 -c 2 -a 0 -i 0 -k RTR
h -t 0.004792277 -s 20 -d -1 -p AOMDV -e 52 -c 2 -a 0 -i 0 -k RTR
+ -t 0.004992780 -s 16 -d -1 -p AOMDV -e 52 -c 2 -a 0 -i 0 -k RTR 
- -t 0.004992780 -s 16 -d -1 -p AOMDV -e 52 -c 2 -a 0 -i 0 -k RTR
h -t 0.004992780 -s 16 -d -1 -p AOMDV -e 52 -c 2 -a 0 -i 0 -k RTR
r -t 0.005085776 -s 7 -d -1 -p AOMDV -e 52 -c 2 -a 0 -i 0 -k MAC
r -t 0.005085809 -s 12 -d -1 -p AOMDV -e 52 -c 2 -a 0 -i 0 -k MAC
r -t 0.005085939 -s 11 -d -1 -p AOMDV -e 52 -c 2 -a 0 -i 0 -k MAC
r -t 0.005085966 -s 5 -d -1 -p AOMDV -e 52 -c 2 -a 0 -i 0 -k MAC
r -t 0.005086123 -s 6 -d -1 -p AOMDV -e 52 -c 2 -a 0 -i 0 -k MAC
r -t 0.005086266 -s 18 -d -1 -p AOMDV -e 52 -c 2 -a 0 -i 0 -k MAC
r -t 0.005086384 -s 19 -d -1 -p AOMDV -e 52 -c 2 -a 0 -i 0 -k MAC
r -t 0.005086403 -s 4 -d -1 -p AOMDV -e 52 -c 2 -a 0 -i 0 -k MAC
r -t 0.005086406 -s 0 -d -1 -p AOMDV -e 52 -c 2 -a 0 -i 0 -k MAC
r -t 0.005086470 -s 13 -d -1 -p AOMDV -e 52 -c 2 -a 0 -i 0 -k MAC
r -t 0.005086663 -s 3 -d -1 -p AOMDV -e 52 -c 2 -a 0 -i 0 -k MAC
r -t 0.005086703 -s 21 -d -1 -p AOMDV -e 52 -c 2 -a 0 -i 0 -k MAC
r -t 0.005086810 -s 8 -d -1 -p AOMDV -e 52 -c 2 -a 0 -i 0 -k MAC
r -t 0.005086862 -s 20 -d -1 -p AOMDV -e 52 -c 2 -a 0 -i 0 -k MAC
r -t 0.005086868 -s 14 -d -1 -p AOMDV -e 52 -c 2 -a 0 -i 0 -k MAC
r -t 0.005086891 -s 17 -d -1 -p AOMDV -e 52 -c 2 -a 0 -i 0 -k MAC
r -t 0.005086957 -s 1 -d -1 -p AOMDV -e 52 -c 2 -a 0 -i 0 -k MAC
r -t 0.005087089 -s 2 -d -1 -p AOMDV -e 52 -c 2 -a 0 -i 0 -k MAC
r -t 0.005087119 -s 16 -d -1 -p AOMDV -e 52 -c 2 -a 0 -i 0 -k MAC
r -t 0.005087254 -s 9 -d -1 -p AOMDV -e 52 -c 2 -a 0 -i 0 -k MAC
r -t 0.005087294 -s 15 -d -1 -p AOMDV -e 52 -c 2 -a 0 -i 0 -k MAC
r -t 0.005110776 -s 7 -d -1 -p AOMDV -e 52 -c 2 -a 0 -i 0 -k RTR
r -t 0.005110809 -s 12 -d -1 -p AOMDV -e 52 -c 2 -a 0 -i 0 -k RTR
r -t 0.005110939 -s 11 -d -1 -p AOMDV -e 52 -c 2 -a 0 -i 0 -k RTR
r -t 0.005110966 -s 5 -d -1 -p AOMDV -e 52 -c 2 -a 0 -i 0 -k RTR
r -t 0.005111123 -s 6 -d -1 -p AOMDV -e 52 -c 2 -a 0 -i 0 -k RTR
r -t 0.005111266 -s 18 -d -1 -p AOMDV -e 52 -c 2 -a 0 -i 0 -k RTR
r -t 0.005111384 -s 19 -d -1 -p AOMDV -e 52 -c 2 -a 0 -i 0 -k RTR
r -t 0.005111403 -s 4 -d -1 -p AOMDV -e 52 -c 2 -a 0 -i 0 -k RTR
r -t 0.005111406 -s 0 -d -1 -p AOMDV -e 52 -c 2 -a 0 -i 0 -k RTR
r -t 0.005111470 -s 13 -d -1 -p AOMDV -e 52 -c 2 -a 0 -i 0 -k RTR
r -t 0.005111663 -s 3 -d -1 -p AOMDV -e 52 -c 2 -a 0 -i 0 -k RTR
r -t 0.005111703 -s 21 -d -1 -p AOMDV -e 52 -c 2 -a 0 -i 0 -k RTR
r -t 0.005111810 -s 8 -d -1 -p AOMDV -e 52 -c 2 -a 0 -i 0 -k RTR
r -t 0.005111862 -s 20 -d -1 -p AOMDV -e 52 -c 2 -a 0 -i 0 -k RTR
r -t 0.005111868 -s 14 -d -1 -p AOMDV -e 52 -c 2 -a 0 -i 0 -k RTR
r -t 0.005111891 -s 17 -d -1 -p AOMDV -e 52 -c 2 -a 0 -i 0 -k RTR
+ -t 0.005111891 -s 17 -d 10 -p AOMDV -e 52 -c 2 -a 0 -i 0 -k RTR 
- -t 0.005111891 -s 17 -d 10 -p AOMDV -e 52 -c 2 -a 0 -i 0 -k RTR
h -t 0.005111891 -s 17 -d 10 -p AOMDV -e 52 -c 2 -a 0 -i 0 -k RTR
r -t 0.005111957 -s 1 -d -1 -p AOMDV -e 52 -c 2 -a 0 -i 0 -k RTR
r -t 0.005112089 -s 2 -d -1 -p AOMDV -e 52 -c 2 -a 0 -i 0 -k RTR
r -t 0.005112119 -s 16 -d -1 -p AOMDV -e 52 -c 2 -a 0 -i 0 -k RTR
r -t 0.005112254 -s 9 -d -1 -p AOMDV -e 52 -c 2 -a 0 -i 0 -k RTR
r -t 0.005112294 -s 15 -d -1 -p AOMDV -e 52 -c 2 -a 0 -i 0 -k RTR
+ -t 0.005197119 -s 16 -d -1 -p AOMDV -e 110 -c 2 -a 0 -i 0 -k MAC 
- -t 0.005197119 -s 16 -d -1 -p AOMDV -e 110 -c 2 -a 0 -i 0 -k MAC
h -t 0.005197119 -s 16 -d -1 -p AOMDV -e 110 -c 2 -a 0 -i 0 -k MAC
+ -t 0.005879487 -s 11 -d -1 -p AOMDV -e 52 -c 2 -a 0 -i 0 -k RTR 
- -t 0.005879487 -s 11 -d -1 -p AOMDV -e 52 -c 2 -a 0 -i 0 -k RTR
h -t 0.005879487 -s 11 -d -1 -p AOMDV -e 52 -c 2 -a 0 -i 0 -k RTR
r -t 0.006077413 -s 17 -d -1 -p AOMDV -e 52 -c 2 -a 0 -i 0 -k MAC
r -t 0.006077597 -s 15 -d -1 -p AOMDV -e 52 -c 2 -a 0 -i 0 -k MAC
r -t 0.006077607 -s 14 -d -1 -p AOMDV -e 52 -c 2 -a 0 -i 0 -k MAC
r -t 0.006077836 -s 0 -d -1 -p AOMDV -e 52 -c 2 -a 0 -i 0 -k MAC
r -t 0.006078050 -s 8 -d -1 -p AOMDV -e 52 -c 2 -a 0 -i 0 -k MAC
r -t 0.006078137 -s 13 -d -1 -p AOMDV -e 52 -c 2 -a 0 -i 0 -k MAC
r -t 0.006078149 -s 9 -d -1 -p AOMDV -e 52 -c 2 -a 0 -i 0 -k MAC
r -t 0.006078156 -s 21 -d -1 -p AOMDV -e 52 -c 2 -a 0 -i 0 -k MAC
r -t 0.006078321 -s 11 -d -1 -p AOMDV -e 52 -c 2 -a 0 -i 0 -k MAC
r -t 0.006078348 -s 18 -d -1 -p AOMDV -e 52 -c 2 -a 0 -i 0 -k MAC
r -t 0.006078541 -s 6 -d -1 -p AOMDV -e 52 -c 2 -a 0 -i 0 -k MAC
r -t 0.006078569 -s 3 -d -1 -p AOMDV -e 52 -c 2 -a 0 -i 0 -k MAC
r -t 0.006078611 -s 7 -d -1 -p AOMDV -e 52 -c 2 -a 0 -i 0 -k MAC
r -t 0.006078669 -s 2 -d -1 -p AOMDV -e 52 -c 2 -a 0 -i 0 -k MAC
r -t 0.006078870 -s 20 -d -1 -p AOMDV -e 52 -c 2 -a 0 -i 0 -k MAC
r -t 0.006078936 -s 12 -d -1 -p AOMDV -e 52 -c 2 -a 0 -i 0 -k MAC
r -t 0.006078959 -s 10 -d -1 -p AOMDV -e 52 -c 2 -a 0 -i 0 -k MAC
r -t 0.006078961 -s 4 -d -1 -p AOMDV -e 52 -c 2 -a 0 -i 0 -k MAC
r -t 0.006078998 -s 5 -d -1 -p AOMDV -e 52 -c 2 -a 0 -i 0 -k MAC
r -t 0.006079036 -s 19 -d -1 -p AOMDV -e 52 -c 2 -a 0 -i 0 -k MAC
r -t 0.006079113 -s 1 -d -1 -p AOMDV -e 52 -c 2 -a 0 -i 0 -k MAC
r -t 0.006102413 -s 17 -d -1 -p AOMDV -e 52 -c 2 -a 0 -i 0 -k RTR
+ -t 0.006102413 -s 17 -d 16 -p AOMDV -e 52 -c 2 -a 0 -i 0 -k RTR 
- -t 0.006102413 -s 17 -d 16 -p AOMDV -e 52 -c 2 -a 0 -i 0 -k RTR
h -t 0.006102413 -s 17 -d 16 -p AOMDV -e 52 -c 2 -a 0 -i 0 -k RTR
r -t 0.006102597 -s 15 -d -1 -p AOMDV -e 52 -c 2 -a 0 -i 0 -k RTR
r -t 0.006102607 -s 14 -d -1 -p AOMDV -e 52 -c 2 -a 0 -i 0 -k RTR
r -t 0.006102836 -s 0 -d -1 -p AOMDV -e 52 -c 2 -a 0 -i 0 -k RTR
r -t 0.006103050 -s 8 -d -1 -p AOMDV -e 52 -c 2 -a 0 -i 0 -k RTR
r -t 0.006103137 -s 13 -d -1 -p AOMDV -e 52 -c 2 -a 0 -i 0 -k RTR
r -t 0.006103149 -s 9 -d -1 -p AOMDV -e 52 -c 2 -a 0 -i 0 -k RTR
r -t 0.006103156 -s 21 -d -1 -p AOMDV -e 52 -c 2 -a 0 -i 0 -k RTR
r -t 0.006103321 -s 11 -d -1 -p AOMDV -e 52 -c 2 -a 0 -i 0 -k RTR
r -t 0.006103348 -s 18 -d -1 -p AOMDV -e 52 -c 2 -a 0 -i 0 -k RTR
r -t 0.006103541 -s 6 -d -1 -p AOMDV -e 52 -c 2 -a 0 -i 0 -k RTR
r -t 0.006103569 -s 3 -d -1 -p AOMDV -e 52 -c 2 -a 0 -i 0 -k RTR
r -t 0.006103611 -s 7 -d -1 -p AOMDV -e 52 -c 2 -a 0 -i 0 -k RTR
r -t 0.006103669 -s 2 -d -1 -p AOMDV -e 52 -c 2 -a 0 -i 0 -k RTR
r -t 0.006103870 -s 20 -d -1 -p AOMDV -e 52 -c 2 -a 0 -i 0 -k RTR
r -t 0.006103936 -s 12 -d -1 -p AOMDV -e 52 -c 2 -a 0 -i 0 -k RTR
r -t 0.006103959 -s 10 -d -1 -p AOMDV -e 52 -c 2 -a 0 -i 0 -k RTR
r -t 0.006103961 -s 4 -d -1 -p AOMDV -e 52 -c 2 -a 0 -i 0 -k RTR
r -t 0.006103998 -s 5 -d -1 -p AOMDV -e 52 -c 2 -a 0 -i 0 -k RTR
r -t 0.006104036 -s 19 -d -1 -p AOMDV -e 52 -c 2 -a 0 -i 0 -k RTR
r -t 0.006104113 -s 1 -d -1 -p AOMDV -e 52 -c 2 -a 0 -i 0 -k RTR
+ -t 0.006147413 -s 17 -d -1 -p RTS -e 44 -c 2 -a 0 -i 0 -k MAC 
- -t 0.006147413 -s 17 -d -1 -p RTS -e 44 -c 2 -a 0 -i 0 -k MAC
h -t 0.006147413 -s 17 -d -1 -p RTS -e 44 -c 2 -a 0 -i 0 -k MAC
+ -t 0.006478173 -s 6 -d -1 -p AOMDV -e 52 -c 2 -a 0 -i 0 -k RTR 
- -t 0.006478173 -s 6 -d -1 -p AOMDV -e 52 -c 2 -a 0 -i 0 -k RTR
h -t 0.006478173 -s 6 -d -1 -p AOMDV -e 52 -c 2 -a 0 -i 0 -k RTR
r -t 0.006499946 -s 0 -d -1 -p RTS -e 44 -c 2 -a 0 -i 0 -k MAC
+ -t 0.006509946 -s 0 -d -1 -p CTS -e 38 -c 2 -a 0 -i 0 -k MAC 
- -t 0.006509946 -s 0 -d -1 -p CTS -e 38 -c 2 -a 0 -i 0 -k MAC
h -t 0.006509946 -s 0 -d -1 -p CTS -e 38 -c 2 -a 0 -i 0 -k MAC
r -t 0.006814479 -s 17 -d -1 -p CTS -e 38 -c 2 -a 0 -i 0 -k MAC
+ -t 0.006824479 -s 17 -d 0 -p AOMDV -e 110 -c 2 -a 0 -i 0 -k MAC 
- -t 0.006824479 -s 17 -d 0 -p AOMDV -e 110 -c 2 -a 0 -i 0 -k MAC
h -t 0.006824479 -s 17 -d 0 -p AOMDV -e 110 -c 2 -a 0 -i 0 -k MAC
+ -t 0.006855003 -s 19 -d -1 -p AOMDV -e 52 -c 2 -a 0 -i 0 -k RTR 
- -t 0.006855003 -s 19 -d -1 -p AOMDV -e 52 -c 2 -a 0 -i 0 -k RTR
h -t 0.006855003 -s 19 -d -1 -p AOMDV -e 52 -c 2 -a 0 -i 0 -k RTR
+ -t 0.006891046 -s 4 -d -1 -p AOMDV -e 52 -c 2 -a 0 -i 0 -k RTR 
- -t 0.006891046 -s 4 -d -1 -p AOMDV -e 52 -c 2 -a 0 -i 0 -k RTR
h -t 0.006891046 -s 4 -d -1 -p AOMDV -e 52 -c 2 -a 0 -i 0 -k RTR
r -t 0.007705012 -s 0 -d 0 -p AOMDV -e 52 -c 2 -a 0 -i 0 -k MAC
+ -t 0.007715012 -s 0 -d -1 -p ACK -e 38 -c 2 -a 0 -i 0 -k MAC 
- -t 0.007715012 -s 0 -d -1 -p ACK -e 38 -c 2 -a 0 -i 0 -k MAC
h -t 0.007715012 -s 0 -d -1 -p ACK -e 38 -c 2 -a 0 -i 0 -k MAC
+ -t 0.007730012 -s 0 -d 17 -p cbr -e 1020 -c 2 -a 0 -i 0 -k RTR 
- -t 0.007730012 -s 0 -d 17 -p cbr -e 1020 -c 2 -a 0 -i 0 -k RTR
h -t 0.007730012 -s 0 -d 17 -p cbr -e 1020 -c 2 -a 0 -i 0 -k RTR
r -t 0.008019545 -s 17 -d -1 -p ACK -e 38 -c 2 -a 0 -i 0 -k MAC
+ -t 0.008089809 -s 6 -d -1 -p AOMDV -e 110 -c 2 -a 0 -i 0 -k MAC 
- -t 0.008089809 -s 6 -d -1 -p AOMDV -e 110 -c 2 -a 0 -i 0 -k MAC
h -t 0.008089809 -s 6 -d -1 -p AOMDV -e 110 -c 2 -a 0 -i 0 -k MAC
+ -t 0.008177109 -s 14 -d -1 -p AOMDV -e 52 -c 2 -a 0 -i 0 -k RTR 
- -t 0.008177109 -s 14 -d -1 -p AOMDV -e 52 -c 2 -a 0 -i 0 -k RTR
h -t 0.008177109 -s 14 -d -1 -p AOMDV -e 52 -c 2 -a 0 -i 0 -k RTR
+ -t 0.008575188 -s 13 -d -1 -p AOMDV -e 52 -c 2 -a 0 -i 0 -k RTR 
- -t 0.008575188 -s 13 -d -1 -p AOMDV -e 52 -c 2 -a 0 -i 0 -k RTR
h -t 0.008575188 -s 13 -d -1 -p AOMDV -e 52 -c 2 -a 0 -i 0 -k RTR
+ -t 0.008763700 -s 9 -d -1 -p AOMDV -e 52 -c 2 -a 0 -i 0 -k RTR 
- -t 0.008763700 -s 9 -d -1 -p AOMDV -e 52 -c 2 -a 0 -i 0 -k RTR
h -t 0.008763700 -s 9 -d -1 -p AOMDV -e 52 -c 2 -a 0 -i 0 -k RTR
+ -t 0.008913693 -s 18 -d -1 -p AOMDV -e 52 -c 2 -a 0 -i 0 -k RTR 
- -t 0.008913693 -s 18 -d -1 -p AOMDV -e 52 -c 2 -a 0 -i 0 -k RTR
h -t 0.008913693 -s 18 -d -1 -p AOMDV -e 52 -c 2 -a 0 -i 0 -k RTR
r -t 0.008970169 -s 7 -d -1 -p AOMDV -e 52 -c 2 -a 0 -i 0 -k MAC
r -t 0.008970269 -s 13 -d -1 -p AOMDV -e 52 -c 2 -a 0 -i 0 -k MAC
r -t 0.008970287 -s 5 -d -1 -p AOMDV -e 52 -c 2 -a 0 -i 0 -k MAC
r -t 0.008970305 -s 4 -d -1 -p AOMDV -e 52 -c 2 -a 0 -i 0 -k MAC
r -t 0.008970352 -s 3 -d -1 -p AOMDV -e 52 -c 2 -a 0 -i 0 -k MAC
r -t 0.008970580 -s 8 -d -1 -p AOMDV -e 52 -c 2 -a 0 -i 0 -k MAC
r -t 0.008970580 -s 11 -d -1 -p AOMDV -e 52 -c 2 -a 0 -i 0 -k MAC
r -t 0.008970606 -s 0 -d -1 -p AOMDV -e 52 -c 2 -a 0 -i 0 -k MAC
r -t 0.008970654 -s 10 -d -1 -p AOMDV -e 52 -c 2 -a 0 -i 0 -k MAC
r -t 0.008970747 -s 1 -d -1 -p AOMDV -e 52 -c 2 -a 0 -i 0 -k MAC
r -t 0.008970776 -s 2 -d -1 -p AOMDV -e 52 -c 2 -a 0 -i 0 -k MAC
r -t 0.008970816 -s 14 -d -1 -p AOMDV -e 52 -c 2 -a 0 -i 0 -k MAC
r -t 0.008971003 -s 9 -d -1 -p AOMDV -e 52 -c 2 -a 0 -i 0 -k MAC
r -t 0.008971050 -s 12 -d -1 -p AOMDV -e 52 -c 2 -a 0 -i 0 -k MAC
r -t 0.008971069 -s 18 -d -1 -p AOMDV -e 52 -c 2 -a 0 -i 0 -k MAC
r -t 0.008971122 -s 17 -d -1 -p AOMDV -e 52 -c 2 -a 0 -i 0 -k MAC
r -t 0.008971216 -s 15 -d -1 -p AOMDV -e 52 -c 2 -a 0 -i 0 -k MAC
r -t 0.008971231 -s 16 -d -1 -p AOMDV -e 52 -c 2 -a 0 -i 0 -k MAC
r -t 0.008971364 -s 21 -d -1 -p AOMDV -e 52 -c 2 -a 0 -i 0 -k MAC
r -t 0.008971542 -s 19 -d -1 -p AOMDV -e 52 -c 2 -a 0 -i 0 -k MAC
r -t 0.008971833 -s 20 -d -1 -p AOMDV -e 52 -c 2 -a 0 -i 0 -k MAC
r -t 0.008995169 -s 7 -d -1 -p AOMDV -e 52 -c 2 -a 0 -i 0 -k RTR
r -t 0.008995269 -s 13 -d -1 -p AOMDV -e 52 -c 2 -a 0 -i 0 -k RTR
r -t 0.008995287 -s 5 -d -1 -p AOMDV -e 52 -c 2 -a 0 -i 0 -k RTR
r -t 0.008995305 -s 4 -d -1 -p AOMDV -e 52 -c 2 -a 0 -i 0 -k RTR
r -t 0.008995352 -s 3 -d -1 -p AOMDV -e 52 -c 2 -a 0 -i 0 -k RTR
r -t 0.008995580 -s 8 -d -1 -p AOMDV -e 52 -c 2 -a 0 -i 0 -k RTR
r -t 0.008995580 -s 11 -d -1 -p AOMDV -e 52 -c 2 -a 0 -i 0 -k RTR
r -t 0.008995606 -s 0 -d -1 -p AOMDV -e 52 -c 2 -a 0 -i 0 -k RTR
r -t 0.008995654 -s 10 -d -1 -p AOMDV -e 52 -c 2 -a 0 -i 0 -k RTR
r -t 0.008995747 -s 1 -d -1 -p AOMDV -e 52 -c 2 -a 0 -i 0 -k RTR
r -t 0.008995776 -s 2 -d -1 -p AOMDV -e 52 -c 2 -a 0 -i 0 -k RTR
r -t 0.008995816 -s 14 -d -1 -p AOMDV -e 52 -c 2 -a 0 -i 0 -k RTR
r -t 0.008996003 -s 9 -d -1 -p AOMDV -e 52 -c 2 -a 0 -i 0 -k RTR
r -t 0.008996050 -s 12 -d -1 -p AOMDV -e 52 -c 2 -a 0 -i 0 -k RTR
r -t 0.008996069 -s 18 -d -1 -p AOMDV -e 52 -c 2 -a 0 -i 0 -k RTR
r -t 0.008996122 -s 17 -d -1 -p AOMDV -e 52 -c 2 -a 0 -i 0 -k RTR
+ -t 0.008996122 -s 17 -d 6 -p AOMDV -e 52 -c 2 -a 0 -i 0 -k RTR 
- -t 0.008996122 -s 17 -d 6 -p AOMDV -e 52 -c 2 -a 0 -i 0 -k RTR
h -t 0.008996122 -s 17 -d 6 -p AOMDV -e 52 -c 2 -a 0 -i 0 -k RTR
r -t 0.008996216 -s 15 -d -1 -p AOMDV -e 52 -c 2 -a 0 -i 0 -k RTR
r -t 0.008996231 -s 16 -d -1 -p AOMDV -e 52 -c 2 -a 0 -i 0 -k RTR
r -t 0.008996364 -s 21 -d -1 -p AOMDV -e 52 -c 2 -a 0 -i 0 -k RTR
r -t 0.008996542 -s 19 -d -1 -p AOMDV -e 52 -c 2 -a 0 -i 0 -k RTR
r -t 0.008996833 -s 20 -d -1 -p AOMDV -e 52 -c 2 -a 0 -i 0 -k RTR
+ -t 0.009060352 -s 3 -d -1 -p AOMDV -e 110 -c 2 -a 0 -i 0 -k MAC 
- -t 0.009060352 -s 3 -d -1 -p AOMDV -e 110 -c 2 -a 0 -i 0 -k MAC
h -t 0.009060352 -s 3 -d -1 -p AOMDV -e 110 -c 2 -a 0 -i 0 -k MAC
+ -t 0.009061069 -s 18 -d -1 -p AOMDV -e 110 -c 2 -a 0 -i 0 -k MAC 
- -t 0.009061069 -s 18 -d -1 -p AOMDV -e 110 -c 2 -a 0 -i 0 -k MAC
h -t 0.009061069 -s 18 -d -1 -p AOMDV -e 110 -c 2 -a 0 -i 0 -k MAC
d -t 0.009061831 -s 0 -d -1 -p AOMDV -e 110 -c 2 -a 0 -i 0 -k MAC
d -t 0.009062006 -s 17 -d -1 -p AOMDV -e 110 -c 2 -a 0 -i 0 -k MAC
d -t 0.009062057 -s 10 -d -1 -p AOMDV -e 110 -c 2 -a 0 -i 0 -k MAC
d -t 0.009062079 -s 7 -d -1 -p AOMDV -e 110 -c 2 -a 0 -i 0 -k MAC
d -t 0.009062298 -s 16 -d -1 -p AOMDV -e 110 -c 2 -a 0 -i 0 -k MAC
d -t 0.009062329 -s 14 -d -1 -p AOMDV -e 110 -c 2 -a 0 -i 0 -k MAC
d -t 0.009062534 -s 5 -d -1 -p AOMDV -e 110 -c 2 -a 0 -i 0 -k MAC
d -t 0.009062671 -s 15 -d -1 -p AOMDV -e 110 -c 2 -a 0 -i 0 -k MAC
r -t 0.009940778 -s 2 -d -1 -p AOMDV -e 52 -c 2 -a 0 -i 0 -k MAC
r -t 0.009940846 -s 13 -d -1 -p AOMDV -e 52 -c 2 -a 0 -i 0 -k MAC
r -t 0.009940880 -s 4 -d -1 -p AOMDV -e 52 -c 2 -a 0 -i 0 -k MAC
r -t 0.009940895 -s 6 -d -1 -p AOMDV -e 52 -c 2 -a 0 -i 0 -k MAC
r -t 0.009940897 -s 8 -d -1 -p AOMDV -e 52 -c 2 -a 0 -i 0 -k MAC
r -t 0.009940907 -s 1 -d -1 -p AOMDV -e 52 -c 2 -a 0 -i 0 -k MAC
r -t 0.009941177 -s 9 -d -1 -p AOMDV -e 52 -c 2 -a 0 -i 0 -k MAC
r -t 0.009941514 -s 21 -d -1 -p AOMDV -e 52 -c 2 -a 0 -i 0 -k MAC
r -t 0.009941561 -s 11 -d -1 -p AOMDV -e 52 -c 2 -a 0 -i 0 -k MAC
r -t 0.009941750 -s 12 -d -1 -p AOMDV -e 52 -c 2 -a 0 -i 0 -k MAC
r -t 0.009941765 -s 19 -d -1 -p AOMDV -e 52 -c 2 -a 0 -i 0 -k MAC
d -t 0.009941831 -s 0 -d -1 -p AOMDV -e 110 -c 2 -a 0 -i 0 -k MAC
r -t 0.009941840 -s 20 -d -1 -p AOMDV -e 52 -c 2 -a 0 -i 0 -k MAC
d -t 0.009942006 -s 17 -d -1 -p AOMDV -e 110 -c 2 -a 0 -i 0 -k MAC
d -t 0.009942057 -s 10 -d -1 -p AOMDV -e 110 -c 2 -a 0 -i 0 -k MAC
d -t 0.009942079 -s 7 -d -1 -p AOMDV -e 110 -c 2 -a 0 -i 0 -k MAC
d -t 0.009942298 -s 16 -d -1 -p AOMDV -e 110 -c 2 -a 0 -i 0 -k MAC
d -t 0.009942329 -s 14 -d -1 -p AOMDV -e 110 -c 2 -a 0 -i 0 -k MAC
d -t 0.009942534 -s 5 -d -1 -p AOMDV -e 110 -c 2 -a 0 -i 0 -k MAC
d -t 0.009942671 -s 15 -d -1 -p AOMDV -e 110 -c 2 -a 0 -i 0 -k MAC
r -t 0.009965778 -s 2 -d -1 -p AOMDV -e 52 -c 2 -a 0 -i 0 -k RTR
r -t 0.009965846 -s 13 -d -1 -p AOMDV -e 52 -c 2 -a 0 -i 0 -k RTR
r -t 0.009965880 -s 4 -d -1 -p AOMDV -e 52 -c 2 -a 0 -i 0 -k RTR
r -t 0.009965895 -s 6 -d -1 -p AOMDV -e 52 -c 2 -a 0 -i 0 -k RTR
r -t 0.009965897 -s 8 -d -1 -p AOMDV -e 52 -c 2 -a 0 -i 0 -k RTR
r -t 0.009965907 -s 1 -d -1 -p AOMDV -e 52 -c 2 -a 0 -i 0 -k RTR
r -t 0.009966177 -s 9 -d -1 -p AOMDV -e 52 -c 2 -a 0 -i 0 -k RTR
r -t 0.009966514 -s 21 -d -1 -p AOMDV -e 52 -c 2 -a 0 -i 0 -k RTR
r -t 0.009966561 -s 11 -d -1 -p AOMDV -e 52 -c 2 -a 0 -i 0 -k RTR
r -t 0.009966750 -s 12 -d -1 -p AOMDV -e 52 -c 2 -a 0 -i 0 -k RTR
r -t 0.009966765 -s 19 -d -1 -p AOMDV -e 52 -c 2 -a 0 -i 0 -k RTR
r -t 0.009966840 -s 20 -d -1 -p AOMDV -e 52 -c 2 -a 0 -i 0 -k RTR
+ -t 0.010517255 -s 1 -d -1 -p AOMDV -e 110 -c 2 -a 0 -i 0 -k MAC 
- -t 0.010517255 -s 1 -d -1 -p AOMDV -e 110 -c 2 -a 0 -i 0 -k MAC
h -t 0.010517255 -s 1 -d -1 -p AOMDV -e 110 -c 2 -a 0 -i 0 -k MAC
+ -t 0.010699033 -s 21 -d -1 -p AOMDV -e 52 -c 2 -a 0 -i 0 -k RTR 
- -t 0.010699033 -s 21 -d -1 -p AOMDV -e 52 -c 2 -a 0 -i 0 -k RTR
h -t 0.010699033 -s 21 -d -1 -p AOMDV -e 52 -c 2 -a 0 -i 0 -k RTR
r -t 0.011397810 -s 3 -d -1 -p AOMDV -e 52 -c 2 -a 0 -i 0 -k MAC
r -t 0.011397814 -s 4 -d -1 -p AOMDV -e 52 -c 2 -a 0 -i 0 -k MAC
r -t 0.011397834 -s 2 -d -1 -p AOMDV -e 52 -c 2 -a 0 -i 0 -k MAC
r -t 0.011398193 -s 6 -d -1 -p AOMDV -e 52 -c 2 -a 0 -i 0 -k MAC
r -t 0.011398278 -s 5 -d -1 -p AOMDV -e 52 -c 2 -a 0 -i 0 -k MAC
r -t 0.011398299 -s 13 -d -1 -p AOMDV -e 52 -c 2 -a 0 -i 0 -k MAC
r -t 0.011398323 -s 8 -d -1 -p AOMDV -e 52 -c 2 -a 0 -i 0 -k MAC
r -t 0.011398472 -s 9 -d -1 -p AOMDV -e 52 -c 2 -a 0 -i 0 -k MAC
r -t 0.011398522 -s 7 -d -1 -p AOMDV -e 52 -c 2 -a 0 -i 0 -k MAC
r -t 0.011398761 -s 14 -d -1 -p AOMDV -e 52 -c 2 -a 0 -i 0 -k MAC
r -t 0.011398845 -s 0 -d -1 -p AOMDV -e 52 -c 2 -a 0 -i 0 -k MAC
r -t 0.011398933 -s 10 -d -1 -p AOMDV -e 52 -c 2 -a 0 -i 0 -k MAC
r -t 0.011398959 -s 11 -d -1 -p AOMDV -e 52 -c 2 -a 0 -i 0 -k MAC
r -t 0.011399004 -s 15 -d -1 -p AOMDV -e 52 -c 2 -a 0 -i 0 -k MAC
r -t 0.011399249 -s 16 -d -1 -p AOMDV -e 52 -c 2 -a 0 -i 0 -k MAC
r -t 0.011399261 -s 17 -d -1 -p AOMDV -e 52 -c 2 -a 0 -i 0 -k MAC
r -t 0.011399402 -s 12 -d -1 -p AOMDV -e 52 -c 2 -a 0 -i 0 -k MAC
r -t 0.011399440 -s 18 -d -1 -p AOMDV -e 52 -c 2 -a 0 -i 0 -k MAC
r -t 0.011399689 -s 21 -d -1 -p AOMDV -e 52 -c 2 -a 0 -i 0 -k MAC
r -t 0.011399919 -s 19 -d -1 -p AOMDV -e 52 -c 2 -a 0 -i 0 -k MAC
r -t 0.011400210 -s 20 -d -1 -p AOMDV -e 52 -c 2 -a 0 -i 0 -k MAC
r -t 0.011422810 -s 3 -d -1 -p AOMDV -e 52 -c 2 -a 0 -i 0 -k RTR
r -t 0.011422814 -s 4 -d -1 -p AOMDV -e 52 -c 2 -a 0 -i 0 -k RTR
r -t 0.011422834 -s 2 -d -1 -p AOMDV -e 52 -c 2 -a 0 -i 0 -k RTR
r -t 0.011423193 -s 6 -d -1 -p AOMDV -e 52 -c 2 -a 0 -i 0 -k RTR
r -t 0.011423278 -s 5 -d -1 -p AOMDV -e 52 -c 2 -a 0 -i 0 -k RTR
r -t 0.011423299 -s 13 -d -1 -p AOMDV -e 52 -c 2 -a 0 -i 0 -k RTR
r -t 0.011423323 -s 8 -d -1 -p AOMDV -e 52 -c 2 -a 0 -i 0 -k RTR
r -t 0.011423472 -s 9 -d -1 -p AOMDV -e 52 -c 2 -a 0 -i 0 -k RTR
r -t 0.011423522 -s 7 -d -1 -p AOMDV -e 52 -c 2 -a 0 -i 0 -k RTR
r -t 0.011423761 -s 14 -d -1 -p AOMDV -e 52 -c 2 -a 0 -i 0 -k RTR
r -t 0.011423845 -s 0 -d -1 -p AOMDV -e 52 -c 2 -a 0 -i 0 -k RTR
r -t 0.011423933 -s 10 -d -1 -p AOMDV -e 52 -c 2 -a 0 -i 0 -k RTR
r -t 0.011423959 -s 11 -d -1 -p AOMDV -e 52 -c 2 -a 0 -i 0 -k RTR
r -t 0.011424004 -s 15 -d -1 -p AOMDV -e 52 -c 2 -a 0 -i 0 -k RTR
r -t 0.011424249 -s 16 -d -1 -p AOMDV -e 52 -c 2 -a 0 -i 0 -k RTR