n -t * -s 0  -x 513 -y 517 -Z 0 -z 70  -v circle -c black
n -t * -s 1  -x 36 -y 529 -Z 0 -z 70  -v circle -c black
n -t * -s 2  -x 143 -y 666 -Z 0 -z 70  -v circle -c black
n -t * -s 3  -x 201 -y 552 -Z 0 -z 70  -v circle -c black
n -t * -s 4  -x 147 -y 403 -Z 0 -z 70  -v circle -c black
n -t * -s 5  -x 230 -y 291 -Z 0 -z 70  -v circle -c black
n -t * -s 6  -x 295 -y 419 -Z 0 -z 70  -v circle -c black
n -t * -s 7  -x 363 -y 335 -Z 0 -z 70  -v circle -c black
n -t * -s 8  -x 334 -y 647 -Z 0 -z 70  -v circle -c black
n -t * -s 9  -x 304 -y 777 -Z 0 -z 70  -v circle -c black
n -t * -s 10  -x 412 -y 194 -Z 0 -z 70  -v circle -c black
n -t * -s 11  -x 519 -y 361 -Z 0 -z 70  -v circle -c black
n -t * -s 12  -x 569 -y 167 -Z 0 -z 70  -v circle -c black
n -t * -s 13  -x 349 -y 546 -Z 0 -z 70  -v circle -c black
n -t * -s 14  -x 466 -y 668 -Z 0 -z 70  -v circle -c black
n -t * -s 15  -x 489 -y 794 -Z 0 -z 70  -v circle -c black
n -t * -s 16  -x 606 -y 711 -Z 0 -z 70  -v circle -c black
n -t * -s 17  -x 630 -y 626 -Z 0 -z 70  -v circle -c black
n -t * -s 18  -x 666 -y 347 -Z 0 -z 70  -v circle -c black
n -t * -s 19  -x 741 -y 152 -Z 0 -z 70  -v circle -c black
n -t * -s 20  -x 882 -y 264 -Z 0 -z 70  -v circle -c black
n -t * -s 21  -x 761 -y 441 -Z 0 -z 70  -v circle -c black
V -t * -v 1.0a5 -a 0
W -t * -x 1000 -y 840
A -t * -n 1 -p 0 -o 0x7fffffff -c 30 -a 1
A -t * -h 1 -m 1073741823 -s 0
n -t 0.000000 -s 1 -x 36.000000 -y 529.000000 -U 9.548368 -V 2.971308 -T 94.571137
n -t 0.000000 -s 2 -x 143.000000 -y 666.000000 -U 5.299557 -V -14.032630 -T 40.192039
n -t 0.000000 -s 3 -x 201.000000 -y 552.000000 -U 14.375247 -V -26.331583 -T 14.469316
n -t 0.000000 -s 4 -x 147.000000 -y 403.000000 -U 12.265942 -V -15.797046 -T 10.761505
n -t 0.000000 -s 5 -x 230.000000 -y 291.000000 -U -0.000000 -V -0.000000 -T 0.000000
n -t 0.000000 -s 6 -x 295.000000 -y 419.000000 -U 8.012802 -V -5.982892 -T 65.520150
n -t 0.000000 -s 7 -x 363.000000 -y 335.000000 -U 0.000000 -V -0.000000 -T 0.000000
n -t 0.000000 -s 8 -x 334.000000 -y 647.000000 -U -15.427466 -V -12.727659 -T 10.371114
n -t 0.000000 -s 9 -x 304.000000 -y 777.000000 -U 15.006604 -V -25.976948 -T 19.324826
n -t 0.000000 -s 10 -x 412.000000 -y 194.000000 -U 3.048856 -V 3.962887 -T 159.732026
n -t 0.000000 -s 11 -x 519.000000 -y 361.000000 -U -20.415466 -V 28.429013 -T 15.723374
n -t 0.000000 -s 12 -x 569.000000 -y 167.000000 -U -9.111560 -V 23.280453 -T 23.925652
n -t 0.000000 -s 13 -x 349.000000 -y 546.000000 -U -14.999882 -V 0.059523 -T 16.800132
n -t 0.000000 -s 14 -x 466.000000 -y 668.000000 -U -21.756421 -V -12.314955 -T 14.616374
n -t 0.000000 -s 15 -x 489.000000 -y 794.000000 -U 2.327917 -V -4.425020 -T 151.637726
n -t 0.000000 -s 16 -x 606.000000 -y 711.000000 -U -5.542399 -V -24.377896 -T 23.094692
n -t 0.000000 -s 17 -x 630.000000 -y 626.000000 -U -0.000000 -V -0.000000 -T 0.000000
n -t 0.000000 -s 18 -x 666.000000 -y 347.000000 -U -20.894261 -V 21.527421 -T 20.531953
n -t 0.000000 -s 19 -x 741.000000 -y 152.000000 -U -14.267096 -V 14.016062 -T 47.802301
n -t 0.000000 -s 20 -x 882.000000 -y 264.000000 -U 0.000000 -V -0.000000 -T 0.000000
n -t 0.000000 -s 21 -x 761.000000 -y 441.000000 -U -22.664552 -V 10.550740 -T 23.031561
n -t 0 -s 0 -S DLABEL -l "node1" -L ""
n -t 0 -s 1 -S DLABEL -l "node2" -L ""
n -t 0 -s 2 -S DLABEL -l "node3" -L ""
n -t 0 -s 3 -S DLABEL -l "node4" -L ""
n -t 0 -s 4 -S DLABEL -l "node5" -L ""
n -t 0 -s 5 -S DLABEL -l "node6" -L ""
n -t 0 -s 6 -S DLABEL -l "node7" -L ""
n -t 0 -s 7 -S DLABEL -l "node8" -L ""
n -t 0 -s 8 -S DLABEL -l "node9" -L ""
n -t 0 -s 9 -S DLABEL -l "node10" -L ""
n -t 0 -s 10 -S DLABEL -l "node11" -L ""
n -t 0 -s 11 -S DLABEL -l "node12" -L ""
n -t 0 -s 12 -S DLABEL -l "node13" -L ""
n -t 0 -s 13 -S DLABEL -l "node14" -L ""
n -t 0 -s 14 -S DLABEL -l "node15" -L ""
n -t 0 -s 15 -S DLABEL -l "node16" -L ""
n -t 0 -s 16 -S DLABEL -l "node17" -L ""
n -t 0 -s 17 -S DLABEL -l "node18" -L ""
n -t 0 -s 18 -S DLABEL -l "node19" -L ""
n -t 0 -s 19 -S DLABEL -l "node20" -L ""
n -t 0 -s 20 -S DLABEL -l "node21" -L ""
n -t 0 -s 21 -S DLABEL -l "node22" -L ""
n -t 0 -s 0 -S COLOR -c green -o green -i green -I green
n -t 0 -s 1 -S COLOR -c green -o green -i green -I green
n -t 0 -s 2 -S COLOR -c green -o green -i green -I green
n -t 0 -s 3 -S COLOR -c green -o green -i green -I green
n -t 0 -s 4 -S COLOR -c green -o green -i green -I green
n -t 0 -s 5 -S COLOR -c green -o green -i green -I green
n -t 0 -s 6 -S COLOR -c green -o green -i green -I green
n -t 0 -s 7 -S COLOR -c green -o green -i green -I green
n -t 0 -s 8 -S COLOR -c yellow -o yellow -i yellow -I yellow
n -t 0 -s 9 -S COLOR -c yellow -o yellow -i yellow -I yellow
n -t 0 -s 10 -S COLOR -c yellow -o yellow -i yellow -I yellow
n -t 0 -s 11 -S COLOR -c pink -o pink -i pink -I pink
n -t 0 -s 12 -S COLOR -c pink -o pink -i pink -I pink
n -t 0 -s 13 -S COLOR -c pink -o pink -i pink -I pink
n -t 0 -s 14 -S COLOR -c pink -o pink -i pink -I pink
n -t 0 -s 15 -S COLOR -c pink -o pink -i pink -I pink
n -t 0 -s 16 -S COLOR -c orange -o orange -i orange -I orange
n -t 0 -s 17 -S COLOR -c orange -o orange -i orange -I orange
n -t 0 -s 18 -S COLOR -c orange -o orange -i orange -I orange
n -t 0 -s 19 -S COLOR -c orange -o orange -i orange -I orange
n -t 0 -s 20 -S COLOR -c orange -o orange -i orange -I orange
n -t 0 -s 21 -S COLOR -c orange -o orange -i orange -I orange
v -t 0 set_rate_ext 0.014999999999999999 1
+ -t 0.000000000 -s 0 -d -1 -p cbr -e 1000 -c 2 -a 0 -i 0 -k AGT 
- -t 0.000000000 -s 0 -d -1 -p cbr -e 1000 -c 2 -a 0 -i 0 -k AGT
h -t 0.000000000 -s 0 -d -1 -p cbr -e 1000 -c 2 -a 0 -i 0 -k AGT
v -t 0 -e sim_annotation 0 1 MOBILE NODE MOVEMENTS
+ -t 0.000000000 -s 0 -d -1 -p AODV -e 48 -c 2 -a 0 -i 0 -k RTR 
- -t 0.000000000 -s 0 -d -1 -p AODV -e 48 -c 2 -a 0 -i 0 -k RTR
h -t 0.000000000 -s 0 -d -1 -p AODV -e 48 -c 2 -a 0 -i 0 -k RTR
+ -t 0.000295000 -s 0 -d -1 -p AODV -e 106 -c 2 -a 0 -i 0 -k MAC 
- -t 0.000295000 -s 0 -d -1 -p AODV -e 106 -c 2 -a 0 -i 0 -k MAC
h -t 0.000295000 -s 0 -d -1 -p AODV -e 106 -c 2 -a 0 -i 0 -k MAC
r -t 0.001143520 -s 11 -d -1 -p AODV -e 48 -c 2 -a 0 -i 0 -k MAC
r -t 0.001143527 -s 14 -d -1 -p AODV -e 48 -c 2 -a 0 -i 0 -k MAC
r -t 0.001143533 -s 17 -d -1 -p AODV -e 48 -c 2 -a 0 -i 0 -k MAC
r -t 0.001143555 -s 13 -d -1 -p AODV -e 48 -c 2 -a 0 -i 0 -k MAC
r -t 0.001143717 -s 16 -d -1 -p AODV -e 48 -c 2 -a 0 -i 0 -k MAC
r -t 0.001143737 -s 8 -d -1 -p AODV -e 48 -c 2 -a 0 -i 0 -k MAC
r -t 0.001143762 -s 18 -d -1 -p AODV -e 48 -c 2 -a 0 -i 0 -k MAC
r -t 0.001143786 -s 7 -d -1 -p AODV -e 48 -c 2 -a 0 -i 0 -k MAC
r -t 0.001143797 -s 6 -d -1 -p AODV -e 48 -c 2 -a 0 -i 0 -k MAC
r -t 0.001143865 -s 21 -d -1 -p AODV -e 48 -c 2 -a 0 -i 0 -k MAC
r -t 0.001143927 -s 15 -d -1 -p AODV -e 48 -c 2 -a 0 -i 0 -k MAC
r -t 0.001144047 -s 3 -d -1 -p AODV -e 48 -c 2 -a 0 -i 0 -k MAC
r -t 0.001144112 -s 9 -d -1 -p AODV -e 48 -c 2 -a 0 -i 0 -k MAC
r -t 0.001144128 -s 10 -d -1 -p AODV -e 48 -c 2 -a 0 -i 0 -k MAC
r -t 0.001144181 -s 12 -d -1 -p AODV -e 48 -c 2 -a 0 -i 0 -k MAC
r -t 0.001144207 -s 5 -d -1 -p AODV -e 48 -c 2 -a 0 -i 0 -k MAC
r -t 0.001144278 -s 4 -d -1 -p AODV -e 48 -c 2 -a 0 -i 0 -k MAC
r -t 0.001144330 -s 2 -d -1 -p AODV -e 48 -c 2 -a 0 -i 0 -k MAC
r -t 0.001144435 -s 19 -d -1 -p AODV -e 48 -c 2 -a 0 -i 0 -k MAC
r -t 0.001144491 -s 20 -d -1 -p AODV -e 48 -c 2 -a 0 -i 0 -k MAC
r -t 0.001144590 -s 1 -d -1 -p AODV -e 48 -c 2 -a 0 -i 0 -k MAC
r -t 0.001168520 -s 11 -d -1 -p AODV -e 48 -c 2 -a 0 -i 0 -k RTR
r -t 0.001168527 -s 14 -d -1 -p AODV -e 48 -c 2 -a 0 -i 0 -k RTR
r -t 0.001168533 -s 17 -d -1 -p AODV -e 48 -c 2 -a 0 -i 0 -k RTR
+ -t 0.001168533 -s 17 -d 0 -p AODV -e 44 -c 2 -a 0 -i 0 -k RTR 
- -t 0.001168533 -s 17 -d 0 -p AODV -e 44 -c 2 -a 0 -i 0 -k RTR
h -t 0.001168533 -s 17 -d 0 -p AODV -e 44 -c 2 -a 0 -i 0 -k RTR
r -t 0.001168555 -s 13 -d -1 -p AODV -e 48 -c 2 -a 0 -i 0 -k RTR
r -t 0.001168717 -s 16 -d -1 -p AODV -e 48 -c 2 -a 0 -i 0 -k RTR
r -t 0.001168737 -s 8 -d -1 -p AODV -e 48 -c 2 -a 0 -i 0 -k RTR
r -t 0.001168762 -s 18 -d -1 -p AODV -e 48 -c 2 -a 0 -i 0 -k RTR
r -t 0.001168786 -s 7 -d -1 -p AODV -e 48 -c 2 -a 0 -i 0 -k RTR
r -t 0.001168797 -s 6 -d -1 -p AODV -e 48 -c 2 -a 0 -i 0 -k RTR
r -t 0.001168865 -s 21 -d -1 -p AODV -e 48 -c 2 -a 0 -i 0 -k RTR
r -t 0.001168927 -s 15 -d -1 -p AODV -e 48 -c 2 -a 0 -i 0 -k RTR
r -t 0.001169047 -s 3 -d -1 -p AODV -e 48 -c 2 -a 0 -i 0 -k RTR
r -t 0.001169112 -s 9 -d -1 -p AODV -e 48 -c 2 -a 0 -i 0 -k RTR
r -t 0.001169128 -s 10 -d -1 -p AODV -e 48 -c 2 -a 0 -i 0 -k RTR
r -t 0.001169181 -s 12 -d -1 -p AODV -e 48 -c 2 -a 0 -i 0 -k RTR
r -t 0.001169207 -s 5 -d -1 -p AODV -e 48 -c 2 -a 0 -i 0 -k RTR
r -t 0.001169278 -s 4 -d -1 -p AODV -e 48 -c 2 -a 0 -i 0 -k RTR
r -t 0.001169330 -s 2 -d -1 -p AODV -e 48 -c 2 -a 0 -i 0 -k RTR
r -t 0.001169435 -s 19 -d -1 -p AODV -e 48 -c 2 -a 0 -i 0 -k RTR
r -t 0.001169491 -s 20 -d -1 -p AODV -e 48 -c 2 -a 0 -i 0 -k RTR
r -t 0.001169590 -s 1 -d -1 -p AODV -e 48 -c 2 -a 0 -i 0 -k RTR
+ -t 0.001263533 -s 17 -d -1 -p ARP -e 86 -c 2 -a 0 -i 0 -k MAC 
- -t 0.001263533 -s 17 -d -1 -p ARP -e 86 -c 2 -a 0 -i 0 -k MAC
h -t 0.001263533 -s 17 -d -1 -p ARP -e 86 -c 2 -a 0 -i 0 -k MAC
r -t 0.001951827 -s 16 -d -1 -p ARP -e 28 -c 2 -a 0 -i 0 -k MAC
r -t 0.001952066 -s 0 -d -1 -p ARP -e 28 -c 2 -a 0 -i 0 -k MAC
r -t 0.001952097 -s 14 -d -1 -p ARP -e 28 -c 2 -a 0 -i 0 -k MAC
r -t 0.001952264 -s 15 -d -1 -p ARP -e 28 -c 2 -a 0 -i 0 -k MAC
r -t 0.001952289 -s 21 -d -1 -p ARP -e 28 -c 2 -a 0 -i 0 -k MAC
r -t 0.001952471 -s 18 -d -1 -p ARP -e 28 -c 2 -a 0 -i 0 -k MAC
r -t 0.001952491 -s 11 -d -1 -p ARP -e 28 -c 2 -a 0 -i 0 -k MAC
r -t 0.001952507 -s 13 -d -1 -p ARP -e 28 -c 2 -a 0 -i 0 -k MAC
r -t 0.001952522 -s 8 -d -1 -p ARP -e 28 -c 2 -a 0 -i 0 -k MAC
r -t 0.001952730 -s 9 -d -1 -p ARP -e 28 -c 2 -a 0 -i 0 -k MAC
r -t 0.001952846 -s 6 -d -1 -p ARP -e 28 -c 2 -a 0 -i 0 -k MAC
r -t 0.001952849 -s 7 -d -1 -p ARP -e 28 -c 2 -a 0 -i 0 -k MAC
r -t 0.001952984 -s 3 -d -1 -p ARP -e 28 -c 2 -a 0 -i 0 -k MAC
r -t 0.001953003 -s 20 -d -1 -p ARP -e 28 -c 2 -a 0 -i 0 -k MAC
r -t 0.001953076 -s 12 -d -1 -p ARP -e 28 -c 2 -a 0 -i 0 -k MAC
r -t 0.001953146 -s 10 -d -1 -p ARP -e 28 -c 2 -a 0 -i 0 -k MAC
r -t 0.001953156 -s 19 -d -1 -p ARP -e 28 -c 2 -a 0 -i 0 -k MAC
r -t 0.001953162 -s 2 -d -1 -p ARP -e 28 -c 2 -a 0 -i 0 -k MAC
r -t 0.001953272 -s 5 -d -1 -p ARP -e 28 -c 2 -a 0 -i 0 -k MAC
r -t 0.001953306 -s 4 -d -1 -p ARP -e 28 -c 2 -a 0 -i 0 -k MAC
r -t 0.001953539 -s 1 -d -1 -p ARP -e 28 -c 2 -a 0 -i 0 -k MAC
+ -t 0.002182066 -s 0 -d -1 -p RTS -e 44 -c 2 -a 0 -i 0 -k MAC 
- -t 0.002182066 -s 0 -d -1 -p RTS -e 44 -c 2 -a 0 -i 0 -k MAC
h -t 0.002182066 -s 0 -d -1 -p RTS -e 44 -c 2 -a 0 -i 0 -k MAC
+ -t 0.002363615 -s 12 -d -1 -p AODV -e 48 -c 2 -a 0 -i 0 -k RTR 
- -t 0.002363615 -s 12 -d -1 -p AODV -e 48 -c 2 -a 0 -i 0 -k RTR
h -t 0.002363615 -s 12 -d -1 -p AODV -e 48 -c 2 -a 0 -i 0 -k RTR
+ -t 0.002378734 -s 19 -d -1 -p AODV -e 48 -c 2 -a 0 -i 0 -k RTR 
- -t 0.002378734 -s 19 -d -1 -p AODV -e 48 -c 2 -a 0 -i 0 -k RTR
h -t 0.002378734 -s 19 -d -1 -p AODV -e 48 -c 2 -a 0 -i 0 -k RTR
r -t 0.002534599 -s 17 -d -1 -p RTS -e 44 -c 2 -a 0 -i 0 -k MAC
+ -t 0.002544599 -s 17 -d -1 -p CTS -e 38 -c 2 -a 0 -i 0 -k MAC 
- -t 0.002544599 -s 17 -d -1 -p CTS -e 38 -c 2 -a 0 -i 0 -k MAC
h -t 0.002544599 -s 17 -d -1 -p CTS -e 38 -c 2 -a 0 -i 0 -k MAC
r -t 0.002849132 -s 0 -d -1 -p CTS -e 38 -c 2 -a 0 -i 0 -k MAC
+ -t 0.002859132 -s 0 -d -1 -p ARP -e 86 -c 2 -a 0 -i 0 -k MAC 
- -t 0.002859132 -s 0 -d -1 -p ARP -e 86 -c 2 -a 0 -i 0 -k MAC
h -t 0.002859132 -s 0 -d -1 -p ARP -e 86 -c 2 -a 0 -i 0 -k MAC
+ -t 0.003190225 -s 2 -d -1 -p AODV -e 48 -c 2 -a 0 -i 0 -k RTR 
- -t 0.003190225 -s 2 -d -1 -p AODV -e 48 -c 2 -a 0 -i 0 -k RTR
h -t 0.003190225 -s 2 -d -1 -p AODV -e 48 -c 2 -a 0 -i 0 -k RTR
+ -t 0.003413771 -s 4 -d -1 -p AODV -e 48 -c 2 -a 0 -i 0 -k RTR 
- -t 0.003413771 -s 4 -d -1 -p AODV -e 48 -c 2 -a 0 -i 0 -k RTR
h -t 0.003413771 -s 4 -d -1 -p AODV -e 48 -c 2 -a 0 -i 0 -k RTR
r -t 0.003547665 -s 17 -d -1 -p ARP -e 28 -c 2 -a 0 -i 0 -k MAC
+ -t 0.003557665 -s 17 -d -1 -p ACK -e 38 -c 2 -a 0 -i 0 -k MAC 
- -t 0.003557665 -s 17 -d -1 -p ACK -e 38 -c 2 -a 0 -i 0 -k MAC
h -t 0.003557665 -s 17 -d -1 -p ACK -e 38 -c 2 -a 0 -i 0 -k MAC
+ -t 0.003642134 -s 13 -d -1 -p AODV -e 48 -c 2 -a 0 -i 0 -k RTR 
- -t 0.003642134 -s 13 -d -1 -p AODV -e 48 -c 2 -a 0 -i 0 -k RTR
h -t 0.003642134 -s 13 -d -1 -p AODV -e 48 -c 2 -a 0 -i 0 -k RTR
+ -t 0.003662133 -s 21 -d -1 -p AODV -e 48 -c 2 -a 0 -i 0 -k RTR 
- -t 0.003662133 -s 21 -d -1 -p AODV -e 48 -c 2 -a 0 -i 0 -k RTR
h -t 0.003662133 -s 21 -d -1 -p AODV -e 48 -c 2 -a 0 -i 0 -k RTR
+ -t 0.003795848 -s 11 -d -1 -p AODV -e 48 -c 2 -a 0 -i 0 -k RTR 
- -t 0.003795848 -s 11 -d -1 -p AODV -e 48 -c 2 -a 0 -i 0 -k RTR
h -t 0.003795848 -s 11 -d -1 -p AODV -e 48 -c 2 -a 0 -i 0 -k RTR
r -t 0.003862198 -s 0 -d -1 -p ACK -e 38 -c 2 -a 0 -i 0 -k MAC
+ -t 0.003933288 -s 19 -d -1 -p AODV -e 106 -c 2 -a 0 -i 0 -k MAC 
- -t 0.003933288 -s 19 -d -1 -p AODV -e 106 -c 2 -a 0 -i 0 -k MAC
h -t 0.003933288 -s 19 -d -1 -p AODV -e 106 -c 2 -a 0 -i 0 -k MAC
+ -t 0.004045637 -s 10 -d -1 -p AODV -e 48 -c 2 -a 0 -i 0 -k RTR 
- -t 0.004045637 -s 10 -d -1 -p AODV -e 48 -c 2 -a 0 -i 0 -k RTR
h -t 0.004045637 -s 10 -d -1 -p AODV -e 48 -c 2 -a 0 -i 0 -k RTR
+ -t 0.004348573 -s 18 -d -1 -p AODV -e 48 -c 2 -a 0 -i 0 -k RTR 
- -t 0.004348573 -s 18 -d -1 -p AODV -e 48 -c 2 -a 0 -i 0 -k RTR
h -t 0.004348573 -s 18 -d -1 -p AODV -e 48 -c 2 -a 0 -i 0 -k RTR
r -t 0.004781863 -s 12 -d -1 -p AODV -e 48 -c 2 -a 0 -i 0 -k MAC
r -t 0.004781888 -s 20 -d -1 -p AODV -e 48 -c 2 -a 0 -i 0 -k MAC
r -t 0.004781984 -s 18 -d -1 -p AODV -e 48 -c 2 -a 0 -i 0 -k MAC
r -t 0.004782253 -s 21 -d -1 -p AODV -e 48 -c 2 -a 0 -i 0 -k MAC
r -t 0.004782304 -s 11 -d -1 -p AODV -e 48 -c 2 -a 0 -i 0 -k MAC
r -t 0.004782393 -s 10 -d -1 -p AODV -e 48 -c 2 -a 0 -i 0 -k MAC
r -t 0.004782687 -s 7 -d -1 -p AODV -e 48 -c 2 -a 0 -i 0 -k MAC
r -t 0.004782722 -s 0 -d -1 -p AODV -e 48 -c 2 -a 0 -i 0 -k MAC
r -t 0.004782910 -s 17 -d -1 -p AODV -e 48 -c 2 -a 0 -i 0 -k MAC
r -t 0.004783020 -s 6 -d -1 -p AODV -e 48 -c 2 -a 0 -i 0 -k MAC
r -t 0.004783053 -s 5 -d -1 -p AODV -e 48 -c 2 -a 0 -i 0 -k MAC
r -t 0.004783140 -s 13 -d -1 -p AODV -e 48 -c 2 -a 0 -i 0 -k MAC
r -t 0.004783204 -s 16 -d -1 -p AODV -e 48 -c 2 -a 0 -i 0 -k MAC
r -t 0.004783236 -s 14 -d -1 -p AODV -e 48 -c 2 -a 0 -i 0 -k MAC
r -t 0.004783424 -s 8 -d -1 -p AODV -e 48 -c 2 -a 0 -i 0 -k MAC
r -t 0.004783437 -s 4 -d -1 -p AODV -e 48 -c 2 -a 0 -i 0 -k MAC
r -t 0.004783527 -s 3 -d -1 -p AODV -e 48 -c 2 -a 0 -i 0 -k MAC
r -t 0.004783586 -s 15 -d -1 -p AODV -e 48 -c 2 -a 0 -i 0 -k MAC
r -t 0.004783829 -s 9 -d -1 -p AODV -e 48 -c 2 -a 0 -i 0 -k MAC
r -t 0.004783916 -s 2 -d -1 -p AODV -e 48 -c 2 -a 0 -i 0 -k MAC
r -t 0.004783952 -s 1 -d -1 -p AODV -e 48 -c 2 -a 0 -i 0 -k MAC
r -t 0.004806863 -s 12 -d -1 -p AODV -e 48 -c 2 -a 0 -i 0 -k RTR
r -t 0.004806888 -s 20 -d -1 -p AODV -e 48 -c 2 -a 0 -i 0 -k RTR
r -t 0.004806984 -s 18 -d -1 -p AODV -e 48 -c 2 -a 0 -i 0 -k RTR
r -t 0.004807253 -s 21 -d -1 -p AODV -e 48 -c 2 -a 0 -i 0 -k RTR
r -t 0.004807304 -s 11 -d -1 -p AODV -e 48 -c 2 -a 0 -i 0 -k RTR
r -t 0.004807393 -s 10 -d -1 -p AODV -e 48 -c 2 -a 0 -i 0 -k RTR
r -t 0.004807687 -s 7 -d -1 -p AODV -e 48 -c 2 -a 0 -i 0 -k RTR
r -t 0.004807722 -s 0 -d -1 -p AODV -e 48 -c 2 -a 0 -i 0 -k RTR
r -t 0.004807910 -s 17 -d -1 -p AODV -e 48 -c 2 -a 0 -i 0 -k RTR
r -t 0.004808020 -s 6 -d -1 -p AODV -e 48 -c 2 -a 0 -i 0 -k RTR
r -t 0.004808053 -s 5 -d -1 -p AODV -e 48 -c 2 -a 0 -i 0 -k RTR
r -t 0.004808140 -s 13 -d -1 -p AODV -e 48 -c 2 -a 0 -i 0 -k RTR
r -t 0.004808204 -s 16 -d -1 -p AODV -e 48 -c 2 -a 0 -i 0 -k RTR
r -t 0.004808236 -s 14 -d -1 -p AODV -e 48 -c 2 -a 0 -i 0 -k RTR
r -t 0.004808424 -s 8 -d -1 -p AODV -e 48 -c 2 -a 0 -i 0 -k RTR
r -t 0.004808437 -s 4 -d -1 -p AODV -e 48 -c 2 -a 0 -i 0 -k RTR
r -t 0.004808527 -s 3 -d -1 -p AODV -e 48 -c 2 -a 0 -i 0 -k RTR
r -t 0.004808586 -s 15 -d -1 -p AODV -e 48 -c 2 -a 0 -i 0 -k RTR
r -t 0.004808829 -s 9 -d -1 -p AODV -e 48 -c 2 -a 0 -i 0 -k RTR
r -t 0.004808916 -s 2 -d -1 -p AODV -e 48 -c 2 -a 0 -i 0 -k RTR
r -t 0.004808952 -s 1 -d -1 -p AODV -e 48 -c 2 -a 0 -i 0 -k RTR
+ -t 0.004851863 -s 12 -d -1 -p AODV -e 106 -c 2 -a 0 -i 0 -k MAC 
- -t 0.004851863 -s 12 -d -1 -p AODV -e 106 -c 2 -a 0 -i 0 -k MAC
h -t 0.004851863 -s 12 -d -1 -p AODV -e 106 -c 2 -a 0 -i 0 -k MAC
+ -t 0.004851984 -s 18 -d -1 -p AODV -e 106 -c 2 -a 0 -i 0 -k MAC 
- -t 0.004851984 -s 18 -d -1 -p AODV -e 106 -c 2 -a 0 -i 0 -k MAC
h -t 0.004851984 -s 18 -d -1 -p AODV -e 106 -c 2 -a 0 -i 0 -k MAC
d -t 0.004852531 -s 11 -d -1 -p AODV -e 106 -c 2 -a 0 -i 0 -k MAC
d -t 0.004852681 -s 19 -d -1 -p AODV -e 106 -c 2 -a 0 -i 0 -k MAC
d -t 0.004852955 -s 20 -d -1 -p AODV -e 106 -c 2 -a 0 -i 0 -k MAC
d -t 0.004852995 -s 7 -d -1 -p AODV -e 106 -c 2 -a 0 -i 0 -k MAC
d -t 0.004853044 -s 0 -d -1 -p AODV -e 106 -c 2 -a 0 -i 0 -k MAC
d -t 0.004853243 -s 6 -d -1 -p AODV -e 106 -c 2 -a 0 -i 0 -k MAC
d -t 0.004853324 -s 13 -d -1 -p AODV -e 106 -c 2 -a 0 -i 0 -k MAC
d -t 0.004853406 -s 17 -d -1 -p AODV -e 106 -c 2 -a 0 -i 0 -k MAC
d -t 0.004853449 -s 5 -d -1 -p AODV -e 106 -c 2 -a 0 -i 0 -k MAC
d -t 0.004853568 -s 14 -d -1 -p AODV -e 106 -c 2 -a 0 -i 0 -k MAC
d -t 0.004853644 -s 8 -d -1 -p AODV -e 106 -c 2 -a 0 -i 0 -k MAC
d -t 0.004853677 -s 3 -d -1 -p AODV -e 106 -c 2 -a 0 -i 0 -k MAC
d -t 0.004853680 -s 16 -d -1 -p AODV -e 106 -c 2 -a 0 -i 0 -k MAC
d -t 0.004853724 -s 4 -d -1 -p AODV -e 106 -c 2 -a 0 -i 0 -k MAC
d -t 0.004853970 -s 15 -d -1 -p AODV -e 106 -c 2 -a 0 -i 0 -k MAC
d -t 0.004854050 -s 2 -d -1 -p AODV -e 106 -c 2 -a 0 -i 0 -k MAC
d -t 0.004854079 -s 9 -d -1 -p AODV -e 106 -c 2 -a 0 -i 0 -k MAC
d -t 0.004854170 -s 1 -d -1 -p AODV -e 106 -c 2 -a 0 -i 0 -k MAC
r -t 0.005700394 -s 10 -d -1 -p AODV -e 48 -c 2 -a 0 -i 0 -k MAC
r -t 0.005700430 -s 21 -d -1 -p AODV -e 48 -c 2 -a 0 -i 0 -k MAC
d -t 0.005700531 -s 11 -d -1 -p AODV -e 106 -c 2 -a 0 -i 0 -k MAC
d -t 0.005700681 -s 19 -d -1 -p AODV -e 106 -c 2 -a 0 -i 0 -k MAC
d -t 0.005700955 -s 20 -d -1 -p AODV -e 106 -c 2 -a 0 -i 0 -k MAC
d -t 0.005700995 -s 7 -d -1 -p AODV -e 106 -c 2 -a 0 -i 0 -k MAC
d -t 0.005701044 -s 0 -d -1 -p AODV -e 106 -c 2 -a 0 -i 0 -k MAC
d -t 0.005701243 -s 6 -d -1 -p AODV -e 106 -c 2 -a 0 -i 0 -k MAC
d -t 0.005701324 -s 13 -d -1 -p AODV -e 106 -c 2 -a 0 -i 0 -k MAC
d -t 0.005701406 -s 17 -d -1 -p AODV -e 106 -c 2 -a 0 -i 0 -k MAC
d -t 0.005701449 -s 5 -d -1 -p AODV -e 106 -c 2 -a 0 -i 0 -k MAC
d -t 0.005701568 -s 14 -d -1 -p AODV -e 106 -c 2 -a 0 -i 0 -k MAC
d -t 0.005701644 -s 8 -d -1 -p AODV -e 106 -c 2 -a 0 -i 0 -k MAC
d -t 0.005701677 -s 3 -d -1 -p AODV -e 106 -c 2 -a 0 -i 0 -k MAC
d -t 0.005701680 -s 16 -d -1 -p AODV -e 106 -c 2 -a 0 -i 0 -k MAC
d -t 0.005701724 -s 4 -d -1 -p AODV -e 106 -c 2 -a 0 -i 0 -k MAC
d -t 0.005701970 -s 15 -d -1 -p AODV -e 106 -c 2 -a 0 -i 0 -k MAC
d -t 0.005702050 -s 2 -d -1 -p AODV -e 106 -c 2 -a 0 -i 0 -k MAC
d -t 0.005702079 -s 9 -d -1 -p AODV -e 106 -c 2 -a 0 -i 0 -k MAC
d -t 0.005702170 -s 1 -d -1 -p AODV -e 106 -c 2 -a 0 -i 0 -k MAC
r -t 0.005725394 -s 10 -d -1 -p AODV -e 48 -c 2 -a 0 -i 0 -k RTR
r -t 0.005725430 -s 21 -d -1 -p AODV -e 48 -c 2 -a 0 -i 0 -k RTR
+ -t 0.005747503 -s 6 -d -1 -p AODV -e 48 -c 2 -a 0 -i 0 -k RTR 
- -t 0.005747503 -s 6 -d -1 -p AODV -e 48 -c 2 -a 0 -i 0 -k RTR
h -t 0.005747503 -s 6 -d -1 -p AODV -e 48 -c 2 -a 0 -i 0 -k RTR
+ -t 0.006134978 -s 21 -d -1 -p AODV -e 106 -c 2 -a 0 -i 0 -k MAC 
- -t 0.006134978 -s 21 -d -1 -p AODV -e 106 -c 2 -a 0 -i 0 -k MAC
h -t 0.006134978 -s 21 -d -1 -p AODV -e 106 -c 2 -a 0 -i 0 -k MAC
r -t 0.006983423 -s 18 -d -1 -p AODV -e 48 -c 2 -a 0 -i 0 -k MAC
r -t 0.006983693 -s 20 -d -1 -p AODV -e 48 -c 2 -a 0 -i 0 -k MAC
r -t 0.006983733 -s 17 -d -1 -p AODV -e 48 -c 2 -a 0 -i 0 -k MAC
r -t 0.006983827 -s 11 -d -1 -p AODV -e 48 -c 2 -a 0 -i 0 -k MAC
r -t 0.006983842 -s 0 -d -1 -p AODV -e 48 -c 2 -a 0 -i 0 -k MAC
r -t 0.006983944 -s 19 -d -1 -p AODV -e 48 -c 2 -a 0 -i 0 -k MAC
r -t 0.006984015 -s 16 -d -1 -p AODV -e 48 -c 2 -a 0 -i 0 -k MAC
r -t 0.006984093 -s 12 -d -1 -p AODV -e 48 -c 2 -a 0 -i 0 -k MAC
r -t 0.006984219 -s 14 -d -1 -p AODV -e 48 -c 2 -a 0 -i 0 -k MAC
r -t 0.006984351 -s 7 -d -1 -p AODV -e 48 -c 2 -a 0 -i 0 -k MAC
r -t 0.006984395 -s 13 -d -1 -p AODV -e 48 -c 2 -a 0 -i 0 -k MAC
r -t 0.006984403 -s 10 -d -1 -p AODV -e 48 -c 2 -a 0 -i 0 -k MAC
r -t 0.006984463 -s 15 -d -1 -p AODV -e 48 -c 2 -a 0 -i 0 -k MAC
r -t 0.006984533 -s 6 -d -1 -p AODV -e 48 -c 2 -a 0 -i 0 -k MAC
r -t 0.006984558 -s 8 -d -1 -p AODV -e 48 -c 2 -a 0 -i 0 -k MAC
r -t 0.006984817 -s 5 -d -1 -p AODV -e 48 -c 2 -a 0 -i 0 -k MAC
r -t 0.006984868 -s 9 -d -1 -p AODV -e 48 -c 2 -a 0 -i 0 -k MAC
r -t 0.006984880 -s 3 -d -1 -p AODV -e 48 -c 2 -a 0 -i 0 -k MAC
r -t 0.006985028 -s 4 -d -1 -p AODV -e 48 -c 2 -a 0 -i 0 -k MAC
r -t 0.006985170 -s 2 -d -1 -p AODV -e 48 -c 2 -a 0 -i 0 -k MAC
r -t 0.006985412 -s 1 -d -1 -p AODV -e 48 -c 2 -a 0 -i 0 -k MAC
r -t 0.007008423 -s 18 -d -1 -p AODV -e 48 -c 2 -a 0 -i 0 -k RTR
r -t 0.007008693 -s 20 -d -1 -p AODV -e 48 -c 2 -a 0 -i 0 -k RTR
r -t 0.007008733 -s 17 -d -1 -p AODV -e 48 -c 2 -a 0 -i 0 -k RTR
r -t 0.007008827 -s 11 -d -1 -p AODV -e 48 -c 2 -a 0 -i 0 -k RTR
r -t 0.007008842 -s 0 -d -1 -p AODV -e 48 -c 2 -a 0 -i 0 -k RTR
r -t 0.007008944 -s 19 -d -1 -p AODV -e 48 -c 2 -a 0 -i 0 -k RTR
r -t 0.007009015 -s 16 -d -1 -p AODV -e 48 -c 2 -a 0 -i 0 -k RTR
r -t 0.007009093 -s 12 -d -1 -p AODV -e 48 -c 2 -a 0 -i 0 -k RTR
r -t 0.007009219 -s 14 -d -1 -p AODV -e 48 -c 2 -a 0 -i 0 -k RTR
r -t 0.007009351 -s 7 -d -1 -p AODV -e 48 -c 2 -a 0 -i 0 -k RTR
r -t 0.007009395 -s 13 -d -1 -p AODV -e 48 -c 2 -a 0 -i 0 -k RTR
r -t 0.007009403 -s 10 -d -1 -p AODV -e 48 -c 2 -a 0 -i 0 -k RTR
r -t 0.007009463 -s 15 -d -1 -p AODV -e 48 -c 2 -a 0 -i 0 -k RTR
r -t 0.007009533 -s 6 -d -1 -p AODV -e 48 -c 2 -a 0 -i 0 -k RTR
r -t 0.007009558 -s 8 -d -1 -p AODV -e 48 -c 2 -a 0 -i 0 -k RTR
r -t 0.007009817 -s 5 -d -1 -p AODV -e 48 -c 2 -a 0 -i 0 -k RTR
r -t 0.007009868 -s 9 -d -1 -p AODV -e 48 -c 2 -a 0 -i 0 -k RTR
r -t 0.007009880 -s 3 -d -1 -p AODV -e 48 -c 2 -a 0 -i 0 -k RTR
r -t 0.007010028 -s 4 -d -1 -p AODV -e 48 -c 2 -a 0 -i 0 -k RTR
r -t 0.007010170 -s 2 -d -1 -p AODV -e 48 -c 2 -a 0 -i 0 -k RTR
r -t 0.007010412 -s 1 -d -1 -p AODV -e 48 -c 2 -a 0 -i 0 -k RTR
+ -t 0.007094403 -s 10 -d -1 -p AODV -e 106 -c 2 -a 0 -i 0 -k MAC 
- -t 0.007094403 -s 10 -d -1 -p AODV -e 106 -c 2 -a 0 -i 0 -k MAC
h -t 0.007094403 -s 10 -d -1 -p AODV -e 106 -c 2 -a 0 -i 0 -k MAC
+ -t 0.007395030 -s 5 -d -1 -p AODV -e 48 -c 2 -a 0 -i 0 -k RTR 
- -t 0.007395030 -s 5 -d -1 -p AODV -e 48 -c 2 -a 0 -i 0 -k RTR
h -t 0.007395030 -s 5 -d -1 -p AODV -e 48 -c 2 -a 0 -i 0 -k RTR
+ -t 0.007879117 -s 8 -d -1 -p AODV -e 48 -c 2 -a 0 -i 0 -k RTR 
- -t 0.007879117 -s 8 -d -1 -p AODV -e 48 -c 2 -a 0 -i 0 -k RTR
h -t 0.007879117 -s 8 -d -1 -p AODV -e 48 -c 2 -a 0 -i 0 -k RTR
r -t 0.007942900 -s 7 -d -1 -p AODV -e 48 -c 2 -a 0 -i 0 -k MAC
r -t 0.007942934 -s 12 -d -1 -p AODV -e 48 -c 2 -a 0 -i 0 -k MAC
r -t 0.007943064 -s 11 -d -1 -p AODV -e 48 -c 2 -a 0 -i 0 -k MAC
r -t 0.007943090 -s 5 -d -1 -p AODV -e 48 -c 2 -a 0 -i 0 -k MAC
r -t 0.007943248 -s 6 -d -1 -p AODV -e 48 -c 2 -a 0 -i 0 -k MAC
r -t 0.007943391 -s 18 -d -1 -p AODV -e 48 -c 2 -a 0 -i 0 -k MAC
r -t 0.007943508 -s 19 -d -1 -p AODV -e 48 -c 2 -a 0 -i 0 -k MAC
r -t 0.007943527 -s 4 -d -1 -p AODV -e 48 -c 2 -a 0 -i 0 -k MAC
r -t 0.007943531 -s 0 -d -1 -p AODV -e 48 -c 2 -a 0 -i 0 -k MAC
r -t 0.007943595 -s 13 -d -1 -p AODV -e 48 -c 2 -a 0 -i 0 -k MAC
r -t 0.007943787 -s 3 -d -1 -p AODV -e 48 -c 2 -a 0 -i 0 -k MAC
r -t 0.007943828 -s 21 -d -1 -p AODV -e 48 -c 2 -a 0 -i 0 -k MAC
r -t 0.007943935 -s 8 -d -1 -p AODV -e 48 -c 2 -a 0 -i 0 -k MAC
r -t 0.007943987 -s 20 -d -1 -p AODV -e 48 -c 2 -a 0 -i 0 -k MAC
r -t 0.007943993 -s 14 -d -1 -p AODV -e 48 -c 2 -a 0 -i 0 -k MAC
r -t 0.007944016 -s 17 -d -1 -p AODV -e 48 -c 2 -a 0 -i 0 -k MAC
r -t 0.007944081 -s 1 -d -1 -p AODV -e 48 -c 2 -a 0 -i 0 -k MAC
r -t 0.007944213 -s 2 -d -1 -p AODV -e 48 -c 2 -a 0 -i 0 -k MAC
r -t 0.007944243 -s 16 -d -1 -p AODV -e 48 -c 2 -a 0 -i 0 -k MAC
r -t 0.007944379 -s 9 -d -1 -p AODV -e 48 -c 2 -a 0 -i 0 -k MAC
r -t 0.007944419 -s 15 -d -1 -p AODV -e 48 -c 2 -a 0 -i 0 -k MAC
r -t 0.007967900 -s 7 -d -1 -p AODV -e 48 -c 2 -a 0 -i 0 -k RTR
r -t 0.007967934 -s 12 -d -1 -p AODV -e 48 -c 2 -a 0 -i 0 -k RTR
r -t 0.007968064 -s 11 -d -1 -p AODV -e 48 -c 2 -a 0 -i 0 -k RTR
r -t 0.007968090 -s 5 -d -1 -p AODV -e 48 -c 2 -a 0 -i 0 -k RTR
r -t 0.007968248 -s 6 -d -1 -p AODV -e 48 -c 2 -a 0 -i 0 -k RTR
r -t 0.007968391 -s 18 -d -1 -p AODV -e 48 -c 2 -a 0 -i 0 -k RTR
r -t 0.007968508 -s 19 -d -1 -p AODV -e 48 -c 2 -a 0 -i 0 -k RTR
r -t 0.007968527 -s 4 -d -1 -p AODV -e 48 -c 2 -a 0 -i 0 -k RTR
r -t 0.007968531 -s 0 -d -1 -p AODV -e 48 -c 2 -a 0 -i 0 -k RTR
r -t 0.007968595 -s 13 -d -1 -p AODV -e 48 -c 2 -a 0 -i 0 -k RTR
r -t 0.007968787 -s 3 -d -1 -p AODV -e 48 -c 2 -a 0 -i 0 -k RTR
r -t 0.007968828 -s 21 -d -1 -p AODV -e 48 -c 2 -a 0 -i 0 -k RTR
r -t 0.007968935 -s 8 -d -1 -p AODV -e 48 -c 2 -a 0 -i 0 -k RTR
r -t 0.007968987 -s 20 -d -1 -p AODV -e 48 -c 2 -a 0 -i 0 -k RTR
r -t 0.007968993 -s 14 -d -1 -p AODV -e 48 -c 2 -a 0 -i 0 -k RTR
r -t 0.007969016 -s 17 -d -1 -p AODV -e 48 -c 2 -a 0 -i 0 -k RTR
r -t 0.007969081 -s 1 -d -1 -p AODV -e 48 -c 2 -a 0 -i 0 -k RTR
r -t 0.007969213 -s 2 -d -1 -p AODV -e 48 -c 2 -a 0 -i 0 -k RTR
r -t 0.007969243 -s 16 -d -1 -p AODV -e 48 -c 2 -a 0 -i 0 -k RTR
r -t 0.007969379 -s 9 -d -1 -p AODV -e 48 -c 2 -a 0 -i 0 -k RTR
r -t 0.007969419 -s 15 -d -1 -p AODV -e 48 -c 2 -a 0 -i 0 -k RTR
+ -t 0.008153527 -s 4 -d -1 -p AODV -e 106 -c 2 -a 0 -i 0 -k MAC 
- -t 0.008153527 -s 4 -d -1 -p AODV -e 106 -c 2 -a 0 -i 0 -k MAC
h -t 0.008153527 -s 4 -d -1 -p AODV -e 106 -c 2 -a 0 -i 0 -k MAC
+ -t 0.008154016 -s 17 -d -1 -p RTS -e 44 -c 2 -a 0 -i 0 -k MAC 
- -t 0.008154016 -s 17 -d -1 -p RTS -e 44 -c 2 -a 0 -i 0 -k MAC
h -t 0.008154016 -s 17 -d -1 -p RTS -e 44 -c 2 -a 0 -i 0 -k MAC
+ -t 0.008436717 -s 16 -d -1 -p AODV -e 48 -c 2 -a 0 -i 0 -k RTR 
- -t 0.008436717 -s 16 -d -1 -p AODV -e 48 -c 2 -a 0 -i 0 -k RTR
h -t 0.008436717 -s 16 -d -1 -p AODV -e 48 -c 2 -a 0 -i 0 -k RTR
r -t 0.008506549 -s 0 -d -1 -p RTS -e 44 -c 2 -a 0 -i 0 -k MAC
r -t 0.009001992 -s 5 -d -1 -p AODV -e 48 -c 2 -a 0 -i 0 -k MAC
r -t 0.009002024 -s 6 -d -1 -p AODV -e 48 -c 2 -a 0 -i 0 -k MAC
r -t 0.009002055 -s 3 -d -1 -p AODV -e 48 -c 2 -a 0 -i 0 -k MAC
r -t 0.009002088 -s 1 -d -1 -p AODV -e 48 -c 2 -a 0 -i 0 -k MAC
d -t 0.009002282 -s 7 -d -1 -p AODV -e 106 -c 2 -a 0 -i 0 -k MAC
d -t 0.009002352 -s 13 -d -1 -p AODV -e 106 -c 2 -a 0 -i 0 -k MAC
r -t 0.009002404 -s 2 -d -1 -p AODV -e 48 -c 2 -a 0 -i 0 -k MAC
d -t 0.009002552 -s 8 -d -1 -p AODV -e 106 -c 2 -a 0 -i 0 -k MAC
d -t 0.009002652 -s 10 -d -1 -p AODV -e 106 -c 2 -a 0 -i 0 -k MAC
d -t 0.009002774 -s 11 -d -1 -p AODV -e 106 -c 2 -a 0 -i 0 -k MAC
d -t 0.009002879 -s 9 -d -1 -p AODV -e 106 -c 2 -a 0 -i 0 -k MAC
d -t 0.009003138 -s 12 -d -1 -p AODV -e 106 -c 2 -a 0 -i 0 -k MAC
d -t 0.009003676 -s 19 -d -1 -p AODV -e 106 -c 2 -a 0 -i 0 -k MAC
d -t 0.009004020 -s 20 -d -1 -p AODV -e 106 -c 2 -a 0 -i 0 -k MAC
r -t 0.009026992 -s 5 -d -1 -p AODV -e 48 -c 2 -a 0 -i 0 -k RTR
r -t 0.009027024 -s 6 -d -1 -p AODV -e 48 -c 2 -a 0 -i 0 -k RTR
r -t 0.009027055 -s 3 -d -1 -p AODV -e 48 -c 2 -a 0 -i 0 -k RTR
r -t 0.009027088 -s 1 -d -1 -p AODV -e 48 -c 2 -a 0 -i 0 -k RTR
r -t 0.009027404 -s 2 -d -1 -p AODV -e 48 -c 2 -a 0 -i 0 -k RTR
+ -t 0.009112404 -s 2 -d -1 -p AODV -e 106 -c 2 -a 0 -i 0 -k MAC 
- -t 0.009112404 -s 2 -d -1 -p AODV -e 106 -c 2 -a 0 -i 0 -k MAC
h -t 0.009112404 -s 2 -d -1 -p AODV -e 106 -c 2 -a 0 -i 0 -k MAC
+ -t 0.009182631 -s 1 -d -1 -p AODV -e 48 -c 2 -a 0 -i 0 -k RTR 
- -t 0.009182631 -s 1 -d -1 -p AODV -e 48 -c 2 -a 0 -i 0 -k RTR
h -t 0.009182631 -s 1 -d -1 -p AODV -e 48 -c 2 -a 0 -i 0 -k RTR
+ -t 0.009640682 -s 20 -d -1 -p AODV -e 48 -c 2 -a 0 -i 0 -k RTR 
- -t 0.009640682 -s 20 -d -1 -p AODV -e 48 -c 2 -a 0 -i 0 -k RTR
h -t 0.009640682 -s 20 -d -1 -p AODV -e 48 -c 2 -a 0 -i 0 -k RTR
r -t 0.009960831 -s 3 -d -1 -p AODV -e 48 -c 2 -a 0 -i 0 -k MAC
r -t 0.009960983 -s 1 -d -1 -p AODV -e 48 -c 2 -a 0 -i 0 -k MAC
r -t 0.009961043 -s 8 -d -1 -p AODV -e 48 -c 2 -a 0 -i 0 -k MAC
r -t 0.009961056 -s 9 -d -1 -p AODV -e 48 -c 2 -a 0 -i 0 -k MAC
r -t 0.009961198 -s 13 -d -1 -p AODV -e 48 -c 2 -a 0 -i 0 -k MAC
r -t 0.009961281 -s 4 -d -1 -p AODV -e 48 -c 2 -a 0 -i 0 -k MAC
r -t 0.009961371 -s 6 -d -1 -p AODV -e 48 -c 2 -a 0 -i 0 -k MAC
r -t 0.009961480 -s 14 -d -1 -p AODV -e 48 -c 2 -a 0 -i 0 -k MAC
r -t 0.009961634 -s 15 -d -1 -p AODV -e 48 -c 2 -a 0 -i 0 -k MAC
r -t 0.009961687 -s 5 -d -1 -p AODV -e 48 -c 2 -a 0 -i 0 -k MAC
r -t 0.009961729 -s 7 -d -1 -p AODV -e 48 -c 2 -a 0 -i 0 -k MAC
r -t 0.009961734 -s 0 -d -1 -p AODV -e 48 -c 2 -a 0 -i 0 -k MAC
r -t 0.009961955 -s 16 -d -1 -p AODV -e 48 -c 2 -a 0 -i 0 -k MAC
r -t 0.009962017 -s 11 -d -1 -p AODV -e 48 -c 2 -a 0 -i 0 -k MAC
r -t 0.009962033 -s 17 -d -1 -p AODV -e 48 -c 2 -a 0 -i 0 -k MAC
r -t 0.009962215 -s 10 -d -1 -p AODV -e 48 -c 2 -a 0 -i 0 -k MAC
r -t 0.009962445 -s 18 -d -1 -p AODV -e 48 -c 2 -a 0 -i 0 -k MAC
r -t 0.009962590 -s 12 -d -1 -p AODV -e 48 -c 2 -a 0 -i 0 -k MAC
r -t 0.009962595 -s 21 -d -1 -p AODV -e 48 -c 2 -a 0 -i 0 -k MAC
r -t 0.009963032 -s 19 -d -1 -p AODV -e 48 -c 2 -a 0 -i 0 -k MAC
r -t 0.009963208 -s 20 -d -1 -p AODV -e 48 -c 2 -a 0 -i 0 -k MAC
r -t 0.009985831 -s 3 -d -1 -p AODV -e 48 -c 2 -a 0 -i 0 -k RTR
r -t 0.009985983 -s 1 -d -1 -p AODV -e 48 -c 2 -a 0 -i 0 -k RTR
r -t 0.009986043 -s 8 -d -1 -p AODV -e 48 -c 2 -a 0 -i 0 -k RTR
r -t 0.009986056 -s 9 -d -1 -p AODV -e 48 -c 2 -a 0 -i 0 -k RTR
r -t 0.009986198 -s 13 -d -1 -p AODV -e 48 -c 2 -a 0 -i 0 -k RTR
r -t 0.009986281 -s 4 -d -1 -p AODV -e 48 -c 2 -a 0 -i 0 -k RTR
r -t 0.009986371 -s 6 -d -1 -p AODV -e 48 -c 2 -a 0 -i 0 -k RTR
r -t 0.009986480 -s 14 -d -1 -p AODV -e 48 -c 2 -a 0 -i 0 -k RTR
r -t 0.009986634 -s 15 -d -1 -p AODV -e 48 -c 2 -a 0 -i 0 -k RTR