M 0.00000 1 (36.00, 529.00, 0.00), (939.00, 810.00), 10.00
M 0.00000 2 (143.00, 666.00, 0.00), (356.00, 102.00), 15.00
M 0.00000 3 (201.00, 552.00, 0.00), (409.00, 171.00), 30.00
M 0.00000 4 (147.00, 403.00, 0.00), (279.00, 233.00), 20.00
M 0.00000 5 (230.00, 291.00, 0.00), (89.00, 63.00), 0.00
M 0.00000 6 (295.00, 419.00, 0.00), (820.00, 27.00), 10.00
M 0.00000 7 (363.00, 335.00, 0.00), (985.00, 124.00), 0.00
M 0.00000 8 (334.00, 647.00, 0.00), (174.00, 515.00), 20.00
M 0.00000 9 (304.00, 777.00, 0.00), (594.00, 275.00), 30.00
M 0.00000 10 (412.00, 194.00, 0.00), (899.00, 827.00), 5.00
M 0.00000 11 (519.00, 361.00, 0.00), (198.00, 808.00), 35.00
M 0.00000 12 (569.00, 167.00, 0.00), (351.00, 724.00), 25.00
M 0.00000 13 (349.00, 546.00, 0.00), (97.00, 547.00), 15.00
M 0.00000 14 (466.00, 668.00, 0.00), (148.00, 488.00), 25.00
M 0.00000 15 (489.00, 794.00, 0.00), (842.00, 123.00), 5.00
M 0.00000 16 (606.00, 711.00, 0.00), (478.00, 148.00), 25.00
M 0.00000 17 (630.00, 626.00, 0.00), (41.00, 59.00), 0.00
M 0.00000 18 (666.00, 347.00, 0.00), (237.00, 789.00), 30.00
M 0.00000 19 (741.00, 152.00, 0.00), (59.00, 822.00), 20.00
M 0.00000 20 (882.00, 264.00, 0.00), (900.00, 150.00), 0.00
M 0.00000 21 (761.00, 441.00, 0.00), (239.00, 684.00), 25.00
s 0.000000000 _0_ AGT  --- 0 cbr 1000 [0 0 0 0] ------- [0:0 17:0 32 0] [0] 0 0
r 0.000000000 _0_ RTR  --- 0 cbr 1000 [0 0 0 0] ------- [0:0 17:0 32 0] [0] 0 0
v 0 eval {set sim_annotation {MOBILE NODE MOVEMENTS}}
s 0.000000000 _0_ RTR  --- 0 AODV 48 [0 0 0 0] ------- [0:255 -1:255 30 0] [0x2 1 1 [17 0] [0 4]] (REQUEST)
s 0.000295000 _0_ MAC  --- 0 AODV 106 [0 ffffffff 0 800] ------- [0:255 -1:255 30 0] [0x2 1 1 [17 0] [0 4]] (REQUEST)
r 0.001143520 _11_ MAC  --- 0 AODV 48 [0 ffffffff 0 800] ------- [0:255 -1:255 30 0] [0x2 1 1 [17 0] [0 4]] (REQUEST)
r 0.001143527 _14_ MAC  --- 0 AODV 48 [0 ffffffff 0 800] ------- [0:255 -1:255 30 0] [0x2 1 1 [17 0] [0 4]] (REQUEST)
r 0.001143533 _17_ MAC  --- 0 AODV 48 [0 ffffffff 0 800] ------- [0:255 -1:255 30 0] [0x2 1 1 [17 0] [0 4]] (REQUEST)
r 0.001143555 _13_ MAC  --- 0 AODV 48 [0 ffffffff 0 800] ------- [0:255 -1:255 30 0] [0x2 1 1 [17 0] [0 4]] (REQUEST)
r 0.001143717 _16_ MAC  --- 0 AODV 48 [0 ffffffff 0 800] ------- [0:255 -1:255 30 0] [0x2 1 1 [17 0] [0 4]] (REQUEST)
r 0.001143737 _8_ MAC  --- 0 AODV 48 [0 ffffffff 0 800] ------- [0:255 -1:255 30 0] [0x2 1 1 [17 0] [0 4]] (REQUEST)
r 0.001143762 _18_ MAC  --- 0 AODV 48 [0 ffffffff 0 800] ------- [0:255 -1:255 30 0] [0x2 1 1 [17 0] [0 4]] (REQUEST)
r 0.001143786 _7_ MAC  --- 0 AODV 48 [0 ffffffff 0 800] ------- [0:255 -1:255 30 0] [0x2 1 1 [17 0] [0 4]] (REQUEST)
r 0.001143797 _6_ MAC  --- 0 AODV 48 [0 ffffffff 0 800] ------- [0:255 -1:255 30 0] [0x2 1 1 [17 0] [0 4]] (REQUEST)
r 0.001143865 _21_ MAC  --- 0 AODV 48 [0 ffffffff 0 800] ------- [0:255 -1:255 30 0] [0x2 1 1 [17 0] [0 4]] (REQUEST)
r 0.001143927 _15_ MAC  --- 0 AODV 48 [0 ffffffff 0 800] ------- [0:255 -1:255 30 0] [0x2 1 1 [17 0] [0 4]] (REQUEST)
r 0.001144047 _3_ MAC  --- 0 AODV 48 [0 ffffffff 0 800] ------- [0:255 -1:255 30 0] [0x2 1 1 [17 0] [0 4]] (REQUEST)
r 0.001144112 _9_ MAC  --- 0 AODV 48 [0 ffffffff 0 800] ------- [0:255 -1:255 30 0] [0x2 1 1 [17 0] [0 4]] (REQUEST)
r 0.001144128 _10_ MAC  --- 0 AODV 48 [0 ffffffff 0 800] ------- [0:255 -1:255 30 0] [0x2 1 1 [17 0] [0 4]] (REQUEST)
r 0.001144181 _12_ MAC  --- 0 AODV 48 [0 ffffffff 0 800] ------- [0:255 -1:255 30 0] [0x2 1 1 [17 0] [0 4]] (REQUEST)
r 0.001144207 _5_ MAC  --- 0 AODV 48 [0 ffffffff 0 800] ------- [0:255 -1:255 30 0] [0x2 1 1 [17 0] [0 4]] (REQUEST)
r 0.001144278 _4_ MAC  --- 0 AODV 48 [0 ffffffff 0 800] ------- [0:255 -1:255 30 0] [0x2 1 1 [17 0] [0 4]] (REQUEST)
r 0.001144330 _2_ MAC  --- 0 AODV 48 [0 ffffffff 0 800] ------- [0:255 -1:255 30 0] [0x2 1 1 [17 0] [0 4]] (REQUEST)
r 0.001144435 _19_ MAC  --- 0 AODV 48 [0 ffffffff 0 800] ------- [0:255 -1:255 30 0] [0x2 1 1 [17 0] [0 4]] (REQUEST)
r 0.001144491 _20_ MAC  --- 0 AODV 48 [0 ffffffff 0 800] ------- [0:255 -1:255 30 0] [0x2 1 1 [17 0] [0 4]] (REQUEST)
r 0.001144590 _1_ MAC  --- 0 AODV 48 [0 ffffffff 0 800] ------- [0:255 -1:255 30 0] [0x2 1 1 [17 0] [0 4]] (REQUEST)
r 0.001168520 _11_ RTR  --- 0 AODV 48 [0 ffffffff 0 800] ------- [0:255 -1:255 30 0] [0x2 1 1 [17 0] [0 4]] (REQUEST)
r 0.001168527 _14_ RTR  --- 0 AODV 48 [0 ffffffff 0 800] ------- [0:255 -1:255 30 0] [0x2 1 1 [17 0] [0 4]] (REQUEST)
r 0.001168533 _17_ RTR  --- 0 AODV 48 [0 ffffffff 0 800] ------- [0:255 -1:255 30 0] [0x2 1 1 [17 0] [0 4]] (REQUEST)
s 0.001168533 _17_ RTR  --- 0 AODV 44 [0 0 0 0] ------- [17:255 0:255 30 0] [0x4 1 [17 4] 10.000000] (REPLY)
r 0.001168555 _13_ RTR  --- 0 AODV 48 [0 ffffffff 0 800] ------- [0:255 -1:255 30 0] [0x2 1 1 [17 0] [0 4]] (REQUEST)
r 0.001168717 _16_ RTR  --- 0 AODV 48 [0 ffffffff 0 800] ------- [0:255 -1:255 30 0] [0x2 1 1 [17 0] [0 4]] (REQUEST)
r 0.001168737 _8_ RTR  --- 0 AODV 48 [0 ffffffff 0 800] ------- [0:255 -1:255 30 0] [0x2 1 1 [17 0] [0 4]] (REQUEST)
r 0.001168762 _18_ RTR  --- 0 AODV 48 [0 ffffffff 0 800] ------- [0:255 -1:255 30 0] [0x2 1 1 [17 0] [0 4]] (REQUEST)
r 0.001168786 _7_ RTR  --- 0 AODV 48 [0 ffffffff 0 800] ------- [0:255 -1:255 30 0] [0x2 1 1 [17 0] [0 4]] (REQUEST)
r 0.001168797 _6_ RTR  --- 0 AODV 48 [0 ffffffff 0 800] ------- [0:255 -1:255 30 0] [0x2 1 1 [17 0] [0 4]] (REQUEST)
r 0.001168865 _21_ RTR  --- 0 AODV 48 [0 ffffffff 0 800] ------- [0:255 -1:255 30 0] [0x2 1 1 [17 0] [0 4]] (REQUEST)
r 0.001168927 _15_ RTR  --- 0 AODV 48 [0 ffffffff 0 800] ------- [0:255 -1:255 30 0] [0x2 1 1 [17 0] [0 4]] (REQUEST)
r 0.001169047 _3_ RTR  --- 0 AODV 48 [0 ffffffff 0 800] ------- [0:255 -1:255 30 0] [0x2 1 1 [17 0] [0 4]] (REQUEST)
r 0.001169112 _9_ RTR  --- 0 AODV 48 [0 ffffffff 0 800] ------- [0:255 -1:255 30 0] [0x2 1 1 [17 0] [0 4]] (REQUEST)
r 0.001169128 _10_ RTR  --- 0 AODV 48 [0 ffffffff 0 800] ------- [0:255 -1:255 30 0] [0x2 1 1 [17 0] [0 4]] (REQUEST)
r 0.001169181 _12_ RTR  --- 0 AODV 48 [0 ffffffff 0 800] ------- [0:255 -1:255 30 0] [0x2 1 1 [17 0] [0 4]] (REQUEST)
r 0.001169207 _5_ RTR  --- 0 AODV 48 [0 ffffffff 0 800] ------- [0:255 -1:255 30 0] [0x2 1 1 [17 0] [0 4]] (REQUEST)
r 0.001169278 _4_ RTR  --- 0 AODV 48 [0 ffffffff 0 800] ------- [0:255 -1:255 30 0] [0x2 1 1 [17 0] [0 4]] (REQUEST)
r 0.001169330 _2_ RTR  --- 0 AODV 48 [0 ffffffff 0 800] ------- [0:255 -1:255 30 0] [0x2 1 1 [17 0] [0 4]] (REQUEST)
r 0.001169435 _19_ RTR  --- 0 AODV 48 [0 ffffffff 0 800] ------- [0:255 -1:255 30 0] [0x2 1 1 [17 0] [0 4]] (REQUEST)
r 0.001169491 _20_ RTR  --- 0 AODV 48 [0 ffffffff 0 800] ------- [0:255 -1:255 30 0] [0x2 1 1 [17 0] [0 4]] (REQUEST)
r 0.001169590 _1_ RTR  --- 0 AODV 48 [0 ffffffff 0 800] ------- [0:255 -1:255 30 0] [0x2 1 1 [17 0] [0 4]] (REQUEST)
s 0.001263533 _17_ MAC  --- 0 ARP 86 [0 ffffffff 11 806] ------- [REQUEST 17/17 0/0]
r 0.001951827 _16_ MAC  --- 0 ARP 28 [0 ffffffff 11 806] ------- [REQUEST 17/17 0/0]
r 0.001952066 _0_ MAC  --- 0 ARP 28 [0 ffffffff 11 806] ------- [REQUEST 17/17 0/0]
r 0.001952097 _14_ MAC  --- 0 ARP 28 [0 ffffffff 11 806] ------- [REQUEST 17/17 0/0]
r 0.001952264 _15_ MAC  --- 0 ARP 28 [0 ffffffff 11 806] ------- [REQUEST 17/17 0/0]
r 0.001952289 _21_ MAC  --- 0 ARP 28 [0 ffffffff 11 806] ------- [REQUEST 17/17 0/0]
r 0.001952471 _18_ MAC  --- 0 ARP 28 [0 ffffffff 11 806] ------- [REQUEST 17/17 0/0]
r 0.001952491 _11_ MAC  --- 0 ARP 28 [0 ffffffff 11 806] ------- [REQUEST 17/17 0/0]
r 0.001952507 _13_ MAC  --- 0 ARP 28 [0 ffffffff 11 806] ------- [REQUEST 17/17 0/0]
r 0.001952522 _8_ MAC  --- 0 ARP 28 [0 ffffffff 11 806] ------- [REQUEST 17/17 0/0]
r 0.001952730 _9_ MAC  --- 0 ARP 28 [0 ffffffff 11 806] ------- [REQUEST 17/17 0/0]
r 0.001952846 _6_ MAC  --- 0 ARP 28 [0 ffffffff 11 806] ------- [REQUEST 17/17 0/0]
r 0.001952849 _7_ MAC  --- 0 ARP 28 [0 ffffffff 11 806] ------- [REQUEST 17/17 0/0]
r 0.001952984 _3_ MAC  --- 0 ARP 28 [0 ffffffff 11 806] ------- [REQUEST 17/17 0/0]
r 0.001953003 _20_ MAC  --- 0 ARP 28 [0 ffffffff 11 806] ------- [REQUEST 17/17 0/0]
r 0.001953076 _12_ MAC  --- 0 ARP 28 [0 ffffffff 11 806] ------- [REQUEST 17/17 0/0]
r 0.001953146 _10_ MAC  --- 0 ARP 28 [0 ffffffff 11 806] ------- [REQUEST 17/17 0/0]
r 0.001953156 _19_ MAC  --- 0 ARP 28 [0 ffffffff 11 806] ------- [REQUEST 17/17 0/0]
r 0.001953162 _2_ MAC  --- 0 ARP 28 [0 ffffffff 11 806] ------- [REQUEST 17/17 0/0]
r 0.001953272 _5_ MAC  --- 0 ARP 28 [0 ffffffff 11 806] ------- [REQUEST 17/17 0/0]
r 0.001953306 _4_ MAC  --- 0 ARP 28 [0 ffffffff 11 806] ------- [REQUEST 17/17 0/0]
r 0.001953539 _1_ MAC  --- 0 ARP 28 [0 ffffffff 11 806] ------- [REQUEST 17/17 0/0]
s 0.002182066 _0_ MAC  --- 0 RTS 44 [52e 11 0 0] 
s 0.002363615 _12_ RTR  --- 0 AODV 48 [0 ffffffff 0 800] ------- [12:255 -1:255 29 0] [0x2 2 1 [17 0] [0 4]] (REQUEST)
s 0.002378734 _19_ RTR  --- 0 AODV 48 [0 ffffffff 0 800] ------- [19:255 -1:255 29 0] [0x2 2 1 [17 0] [0 4]] (REQUEST)
r 0.002534599 _17_ MAC  --- 0 RTS 44 [52e 11 0 0] 
s 0.002544599 _17_ MAC  --- 0 CTS 38 [3f4 0 0 0] 
r 0.002849132 _0_ MAC  --- 0 CTS 38 [3f4 0 0 0] 
s 0.002859132 _0_ MAC  --- 0 ARP 86 [13a 11 0 806] ------- [REPLY 0/0 17/17]
s 0.003190225 _2_ RTR  --- 0 AODV 48 [0 ffffffff 0 800] ------- [2:255 -1:255 29 0] [0x2 2 1 [17 0] [0 4]] (REQUEST)
s 0.003413771 _4_ RTR  --- 0 AODV 48 [0 ffffffff 0 800] ------- [4:255 -1:255 29 0] [0x2 2 1 [17 0] [0 4]] (REQUEST)
r 0.003547665 _17_ MAC  --- 0 ARP 28 [13a 11 0 806] ------- [REPLY 0/0 17/17]
s 0.003557665 _17_ MAC  --- 0 ACK 38 [0 0 0 0] 
s 0.003642134 _13_ RTR  --- 0 AODV 48 [0 ffffffff 0 800] ------- [13:255 -1:255 29 0] [0x2 2 1 [17 0] [0 4]] (REQUEST)
s 0.003662133 _21_ RTR  --- 0 AODV 48 [0 ffffffff 0 800] ------- [21:255 -1:255 29 0] [0x2 2 1 [17 0] [0 4]] (REQUEST)
s 0.003795848 _11_ RTR  --- 0 AODV 48 [0 ffffffff 0 800] ------- [11:255 -1:255 29 0] [0x2 2 1 [17 0] [0 4]] (REQUEST)
r 0.003862198 _0_ MAC  --- 0 ACK 38 [0 0 0 0] 
s 0.003933288 _19_ MAC  --- 0 AODV 106 [0 ffffffff 13 800] ------- [19:255 -1:255 29 0] [0x2 2 1 [17 0] [0 4]] (REQUEST)
s 0.004045637 _10_ RTR  --- 0 AODV 48 [0 ffffffff 0 800] ------- [10:255 -1:255 29 0] [0x2 2 1 [17 0] [0 4]] (REQUEST)
s 0.004348573 _18_ RTR  --- 0 AODV 48 [0 ffffffff 0 800] ------- [18:255 -1:255 29 0] [0x2 2 1 [17 0] [0 4]] (REQUEST)
r 0.004781863 _12_ MAC  --- 0 AODV 48 [0 ffffffff 13 800] ------- [19:255 -1:255 29 0] [0x2 2 1 [17 0] [0 4]] (REQUEST)
r 0.004781888 _20_ MAC  --- 0 AODV 48 [0 ffffffff 13 800] ------- [19:255 -1:255 29 0] [0x2 2 1 [17 0] [0 4]] (REQUEST)
r 0.004781984 _18_ MAC  --- 0 AODV 48 [0 ffffffff 13 800] ------- [19:255 -1:255 29 0] [0x2 2 1 [17 0] [0 4]] (REQUEST)
r 0.004782253 _21_ MAC  --- 0 AODV 48 [0 ffffffff 13 800] ------- [19:255 -1:255 29 0] [0x2 2 1 [17 0] [0 4]] (REQUEST)
r 0.004782304 _11_ MAC  --- 0 AODV 48 [0 ffffffff 13 800] ------- [19:255 -1:255 29 0] [0x2 2 1 [17 0] [0 4]] (REQUEST)
r 0.004782393 _10_ MAC  --- 0 AODV 48 [0 ffffffff 13 800] ------- [19:255 -1:255 29 0] [0x2 2 1 [17 0] [0 4]] (REQUEST)
r 0.004782687 _7_ MAC  --- 0 AODV 48 [0 ffffffff 13 800] ------- [19:255 -1:255 29 0] [0x2 2 1 [17 0] [0 4]] (REQUEST)
r 0.004782722 _0_ MAC  --- 0 AODV 48 [0 ffffffff 13 800] ------- [19:255 -1:255 29 0] [0x2 2 1 [17 0] [0 4]] (REQUEST)
r 0.004782910 _17_ MAC  --- 0 AODV 48 [0 ffffffff 13 800] ------- [19:255 -1:255 29 0] [0x2 2 1 [17 0] [0 4]] (REQUEST)
r 0.004783020 _6_ MAC  --- 0 AODV 48 [0 ffffffff 13 800] ------- [19:255 -1:255 29 0] [0x2 2 1 [17 0] [0 4]] (REQUEST)
r 0.004783053 _5_ MAC  --- 0 AODV 48 [0 ffffffff 13 800] ------- [19:255 -1:255 29 0] [0x2 2 1 [17 0] [0 4]] (REQUEST)
r 0.004783140 _13_ MAC  --- 0 AODV 48 [0 ffffffff 13 800] ------- [19:255 -1:255 29 0] [0x2 2 1 [17 0] [0 4]] (REQUEST)
r 0.004783204 _16_ MAC  --- 0 AODV 48 [0 ffffffff 13 800] ------- [19:255 -1:255 29 0] [0x2 2 1 [17 0] [0 4]] (REQUEST)
r 0.004783236 _14_ MAC  --- 0 AODV 48 [0 ffffffff 13 800] ------- [19:255 -1:255 29 0] [0x2 2 1 [17 0] [0 4]] (REQUEST)
r 0.004783424 _8_ MAC  --- 0 AODV 48 [0 ffffffff 13 800] ------- [19:255 -1:255 29 0] [0x2 2 1 [17 0] [0 4]] (REQUEST)
r 0.004783437 _4_ MAC  --- 0 AODV 48 [0 ffffffff 13 800] ------- [19:255 -1:255 29 0] [0x2 2 1 [17 0] [0 4]] (REQUEST)
r 0.004783527 _3_ MAC  --- 0 AODV 48 [0 ffffffff 13 800] ------- [19:255 -1:255 29 0] [0x2 2 1 [17 0] [0 4]] (REQUEST)
r 0.004783586 _15_ MAC  --- 0 AODV 48 [0 ffffffff 13 800] ------- [19:255 -1:255 29 0] [0x2 2 1 [17 0] [0 4]] (REQUEST)
r 0.004783829 _9_ MAC  --- 0 AODV 48 [0 ffffffff 13 800] ------- [19:255 -1:255 29 0] [0x2 2 1 [17 0] [0 4]] (REQUEST)
r 0.004783916 _2_ MAC  --- 0 AODV 48 [0 ffffffff 13 800] ------- [19:255 -1:255 29 0] [0x2 2 1 [17 0] [0 4]] (REQUEST)
r 0.004783952 _1_ MAC  --- 0 AODV 48 [0 ffffffff 13 800] ------- [19:255 -1:255 29 0] [0x2 2 1 [17 0] [0 4]] (REQUEST)
r 0.004806863 _12_ RTR  --- 0 AODV 48 [0 ffffffff 13 800] ------- [19:255 -1:255 29 0] [0x2 2 1 [17 0] [0 4]] (REQUEST)
r 0.004806888 _20_ RTR  --- 0 AODV 48 [0 ffffffff 13 800] ------- [19:255 -1:255 29 0] [0x2 2 1 [17 0] [0 4]] (REQUEST)
r 0.004806984 _18_ RTR  --- 0 AODV 48 [0 ffffffff 13 800] ------- [19:255 -1:255 29 0] [0x2 2 1 [17 0] [0 4]] (REQUEST)
r 0.004807253 _21_ RTR  --- 0 AODV 48 [0 ffffffff 13 800] ------- [19:255 -1:255 29 0] [0x2 2 1 [17 0] [0 4]] (REQUEST)
r 0.004807304 _11_ RTR  --- 0 AODV 48 [0 ffffffff 13 800] ------- [19:255 -1:255 29 0] [0x2 2 1 [17 0] [0 4]] (REQUEST)
r 0.004807393 _10_ RTR  --- 0 AODV 48 [0 ffffffff 13 800] ------- [19:255 -1:255 29 0] [0x2 2 1 [17 0] [0 4]] (REQUEST)
r 0.004807687 _7_ RTR  --- 0 AODV 48 [0 ffffffff 13 800] ------- [19:255 -1:255 29 0] [0x2 2 1 [17 0] [0 4]] (REQUEST)
r 0.004807722 _0_ RTR  --- 0 AODV 48 [0 ffffffff 13 800] ------- [19:255 -1:255 29 0] [0x2 2 1 [17 0] [0 4]] (REQUEST)
r 0.004807910 _17_ RTR  --- 0 AODV 48 [0 ffffffff 13 800] ------- [19:255 -1:255 29 0] [0x2 2 1 [17 0] [0 4]] (REQUEST)
r 0.004808020 _6_ RTR  --- 0 AODV 48 [0 ffffffff 13 800] ------- [19:255 -1:255 29 0] [0x2 2 1 [17 0] [0 4]] (REQUEST)
r 0.004808053 _5_ RTR  --- 0 AODV 48 [0 ffffffff 13 800] ------- [19:255 -1:255 29 0] [0x2 2 1 [17 0] [0 4]] (REQUEST)
r 0.004808140 _13_ RTR  --- 0 AODV 48 [0 ffffffff 13 800] ------- [19:255 -1:255 29 0] [0x2 2 1 [17 0] [0 4]] (REQUEST)
r 0.004808204 _16_ RTR  --- 0 AODV 48 [0 ffffffff 13 800] ------- [19:255 -1:255 29 0] [0x2 2 1 [17 0] [0 4]] (REQUEST)
r 0.004808236 _14_ RTR  --- 0 AODV 48 [0 ffffffff 13 800] ------- [19:255 -1:255 29 0] [0x2 2 1 [17 0] [0 4]] (REQUEST)
r 0.004808424 _8_ RTR  --- 0 AODV 48 [0 ffffffff 13 800] ------- [19:255 -1:255 29 0] [0x2 2 1 [17 0] [0 4]] (REQUEST)
r 0.004808437 _4_ RTR  --- 0 AODV 48 [0 ffffffff 13 800] ------- [19:255 -1:255 29 0] [0x2 2 1 [17 0] [0 4]] (REQUEST)
r 0.004808527 _3_ RTR  --- 0 AODV 48 [0 ffffffff 13 800] ------- [19:255 -1:255 29 0] [0x2 2 1 [17 0] [0 4]] (REQUEST)
r 0.004808586 _15_ RTR  --- 0 AODV 48 [0 ffffffff 13 800] ------- [19:255 -1:255 29 0] [0x2 2 1 [17 0] [0 4]] (REQUEST)
r 0.004808829 _9_ RTR  --- 0 AODV 48 [0 ffffffff 13 800] ------- [19:255 -1:255 29 0] [0x2 2 1 [17 0] [0 4]] (REQUEST)
r 0.004808916 _2_ RTR  --- 0 AODV 48 [0 ffffffff 13 800] ------- [19:255 -1:255 29 0] [0x2 2 1 [17 0] [0 4]] (REQUEST)
r 0.004808952 _1_ RTR  --- 0 AODV 48 [0 ffffffff 13 800] ------- [19:255 -1:255 29 0] [0x2 2 1 [17 0] [0 4]] (REQUEST)
s 0.004851863 _12_ MAC  --- 0 AODV 106 [0 ffffffff c 800] ------- [12:255 -1:255 29 0] [0x2 2 1 [17 0] [0 4]] (REQUEST)
s 0.004851984 _18_ MAC  --- 0 AODV 106 [0 ffffffff 12 800] ------- [18:255 -1:255 29 0] [0x2 2 1 [17 0] [0 4]] (REQUEST)
D 0.004852531 _11_ MAC  COL 0 AODV 106 [0 ffffffff 12 800] ------- [18:255 -1:255 29 0] [0x2 2 1 [17 0] [0 4]] (REQUEST)
D 0.004852681 _19_ MAC  COL 0 AODV 106 [0 ffffffff c 800] ------- [12:255 -1:255 29 0] [0x2 2 1 [17 0] [0 4]] (REQUEST)
D 0.004852955 _20_ MAC  COL 0 AODV 106 [0 ffffffff 12 800] ------- [18:255 -1:255 29 0] [0x2 2 1 [17 0] [0 4]] (REQUEST)
D 0.004852995 _7_ MAC  COL 0 AODV 106 [0 ffffffff c 800] ------- [12:255 -1:255 29 0] [0x2 2 1 [17 0] [0 4]] (REQUEST)
D 0.004853044 _0_ MAC  COL 0 AODV 106 [0 ffffffff 12 800] ------- [18:255 -1:255 29 0] [0x2 2 1 [17 0] [0 4]] (REQUEST)
D 0.004853243 _6_ MAC  COL 0 AODV 106 [0 ffffffff c 800] ------- [12:255 -1:255 29 0] [0x2 2 1 [17 0] [0 4]] (REQUEST)
D 0.004853324 _13_ MAC  COL 0 AODV 106 [0 ffffffff 12 800] ------- [18:255 -1:255 29 0] [0x2 2 1 [17 0] [0 4]] (REQUEST)
D 0.004853406 _17_ MAC  COL 0 AODV 106 [0 ffffffff 12 800] ------- [18:255 -1:255 29 0] [0x2 2 1 [17 0] [0 4]] (REQUEST)
D 0.004853449 _5_ MAC  COL 0 AODV 106 [0 ffffffff c 800] ------- [12:255 -1:255 29 0] [0x2 2 1 [17 0] [0 4]] (REQUEST)
D 0.004853568 _14_ MAC  COL 0 AODV 106 [0 ffffffff 12 800] ------- [18:255 -1:255 29 0] [0x2 2 1 [17 0] [0 4]] (REQUEST)
D 0.004853644 _8_ MAC  COL 0 AODV 106 [0 ffffffff 12 800] ------- [18:255 -1:255 29 0] [0x2 2 1 [17 0] [0 4]] (REQUEST)
D 0.004853677 _3_ MAC  COL 0 AODV 106 [0 ffffffff c 800] ------- [12:255 -1:255 29 0] [0x2 2 1 [17 0] [0 4]] (REQUEST)
D 0.004853680 _16_ MAC  COL 0 AODV 106 [0 ffffffff 12 800] ------- [18:255 -1:255 29 0] [0x2 2 1 [17 0] [0 4]] (REQUEST)
D 0.004853724 _4_ MAC  COL 0 AODV 106 [0 ffffffff c 800] ------- [12:255 -1:255 29 0] [0x2 2 1 [17 0] [0 4]] (REQUEST)
D 0.004853970 _15_ MAC  COL 0 AODV 106 [0 ffffffff 12 800] ------- [18:255 -1:255 29 0] [0x2 2 1 [17 0] [0 4]] (REQUEST)
D 0.004854050 _2_ MAC  COL 0 AODV 106 [0 ffffffff 12 800] ------- [18:255 -1:255 29 0] [0x2 2 1 [17 0] [0 4]] (REQUEST)
D 0.004854079 _9_ MAC  COL 0 AODV 106 [0 ffffffff 12 800] ------- [18:255 -1:255 29 0] [0x2 2 1 [17 0] [0 4]] (REQUEST)
D 0.004854170 _1_ MAC  COL 0 AODV 106 [0 ffffffff c 800] ------- [12:255 -1:255 29 0] [0x2 2 1 [17 0] [0 4]] (REQUEST)
r 0.005700394 _10_ MAC  --- 0 AODV 48 [0 ffffffff c 800] ------- [12:255 -1:255 29 0] [0x2 2 1 [17 0] [0 4]] (REQUEST)
r 0.005700430 _21_ MAC  --- 0 AODV 48 [0 ffffffff 12 800] ------- [18:255 -1:255 29 0] [0x2 2 1 [17 0] [0 4]] (REQUEST)
D 0.005700531 _11_ MAC  COL 0 AODV 106 [0 ffffffff c 800] ------- [12:255 -1:255 29 0] [0x2 2 1 [17 0] [0 4]] (REQUEST)
D 0.005700681 _19_ MAC  COL 0 AODV 106 [0 ffffffff 12 800] ------- [18:255 -1:255 29 0] [0x2 2 1 [17 0] [0 4]] (REQUEST)
D 0.005700955 _20_ MAC  COL 0 AODV 106 [0 ffffffff c 800] ------- [12:255 -1:255 29 0] [0x2 2 1 [17 0] [0 4]] (REQUEST)
D 0.005700995 _7_ MAC  COL 0 AODV 106 [0 ffffffff 12 800] ------- [18:255 -1:255 29 0] [0x2 2 1 [17 0] [0 4]] (REQUEST)
D 0.005701044 _0_ MAC  COL 0 AODV 106 [0 ffffffff c 800] ------- [12:255 -1:255 29 0] [0x2 2 1 [17 0] [0 4]] (REQUEST)
D 0.005701243 _6_ MAC  COL 0 AODV 106 [0 ffffffff 12 800] ------- [18:255 -1:255 29 0] [0x2 2 1 [17 0] [0 4]] (REQUEST)
D 0.005701324 _13_ MAC  COL 0 AODV 106 [0 ffffffff c 800] ------- [12:255 -1:255 29 0] [0x2 2 1 [17 0] [0 4]] (REQUEST)
D 0.005701406 _17_ MAC  COL 0 AODV 106 [0 ffffffff c 800] ------- [12:255 -1:255 29 0] [0x2 2 1 [17 0] [0 4]] (REQUEST)
D 0.005701449 _5_ MAC  COL 0 AODV 106 [0 ffffffff 12 800] ------- [18:255 -1:255 29 0] [0x2 2 1 [17 0] [0 4]] (REQUEST)
D 0.005701568 _14_ MAC  COL 0 AODV 106 [0 ffffffff c 800] ------- [12:255 -1:255 29 0] [0x2 2 1 [17 0] [0 4]] (REQUEST)
D 0.005701644 _8_ MAC  COL 0 AODV 106 [0 ffffffff c 800] ------- [12:255 -1:255 29 0] [0x2 2 1 [17 0] [0 4]] (REQUEST)
D 0.005701677 _3_ MAC  COL 0 AODV 106 [0 ffffffff 12 800] ------- [18:255 -1:255 29 0] [0x2 2 1 [17 0] [0 4]] (REQUEST)
D 0.005701680 _16_ MAC  COL 0 AODV 106 [0 ffffffff c 800] ------- [12:255 -1:255 29 0] [0x2 2 1 [17 0] [0 4]] (REQUEST)
D 0.005701724 _4_ MAC  COL 0 AODV 106 [0 ffffffff 12 800] ------- [18:255 -1:255 29 0] [0x2 2 1 [17 0] [0 4]] (REQUEST)
D 0.005701970 _15_ MAC  COL 0 AODV 106 [0 ffffffff c 800] ------- [12:255 -1:255 29 0] [0x2 2 1 [17 0] [0 4]] (REQUEST)
D 0.005702050 _2_ MAC  COL 0 AODV 106 [0 ffffffff c 800] ------- [12:255 -1:255 29 0] [0x2 2 1 [17 0] [0 4]] (REQUEST)
D 0.005702079 _9_ MAC  COL 0 AODV 106 [0 ffffffff c 800] ------- [12:255 -1:255 29 0] [0x2 2 1 [17 0] [0 4]] (REQUEST)
D 0.005702170 _1_ MAC  COL 0 AODV 106 [0 ffffffff 12 800] ------- [18:255 -1:255 29 0] [0x2 2 1 [17 0] [0 4]] (REQUEST)
r 0.005725394 _10_ RTR  --- 0 AODV 48 [0 ffffffff c 800] ------- [12:255 -1:255 29 0] [0x2 2 1 [17 0] [0 4]] (REQUEST)
r 0.005725430 _21_ RTR  --- 0 AODV 48 [0 ffffffff 12 800] ------- [18:255 -1:255 29 0] [0x2 2 1 [17 0] [0 4]] (REQUEST)
s 0.005747503 _6_ RTR  --- 0 AODV 48 [0 ffffffff 0 800] ------- [6:255 -1:255 29 0] [0x2 2 1 [17 0] [0 4]] (REQUEST)
s 0.006134978 _21_ MAC  --- 0 AODV 106 [0 ffffffff 15 800] ------- [21:255 -1:255 29 0] [0x2 2 1 [17 0] [0 4]] (REQUEST)
r 0.006983423 _18_ MAC  --- 0 AODV 48 [0 ffffffff 15 800] ------- [21:255 -1:255 29 0] [0x2 2 1 [17 0] [0 4]] (REQUEST)
r 0.006983693 _20_ MAC  --- 0 AODV 48 [0 ffffffff 15 800] ------- [21:255 -1:255 29 0] [0x2 2 1 [17 0] [0 4]] (REQUEST)
r 0.006983733 _17_ MAC  --- 0 AODV 48 [0 ffffffff 15 800] ------- [21:255 -1:255 29 0] [0x2 2 1 [17 0] [0 4]] (REQUEST)
r 0.006983827 _11_ MAC  --- 0 AODV 48 [0 ffffffff 15 800] ------- [21:255 -1:255 29 0] [0x2 2 1 [17 0] [0 4]] (REQUEST)
r 0.006983842 _0_ MAC  --- 0 AODV 48 [0 ffffffff 15 800] ------- [21:255 -1:255 29 0] [0x2 2 1 [17 0] [0 4]] (REQUEST)
r 0.006983944 _19_ MAC  --- 0 AODV 48 [0 ffffffff 15 800] ------- [21:255 -1:255 29 0] [0x2 2 1 [17 0] [0 4]] (REQUEST)
r 0.006984015 _16_ MAC  --- 0 AODV 48 [0 ffffffff 15 800] ------- [21:255 -1:255 29 0] [0x2 2 1 [17 0] [0 4]] (REQUEST)
r 0.006984093 _12_ MAC  --- 0 AODV 48 [0 ffffffff 15 800] ------- [21:255 -1:255 29 0] [0x2 2 1 [17 0] [0 4]] (REQUEST)
r 0.006984219 _14_ MAC  --- 0 AODV 48 [0 ffffffff 15 800] ------- [21:255 -1:255 29 0] [0x2 2 1 [17 0] [0 4]] (REQUEST)
r 0.006984351 _7_ MAC  --- 0 AODV 48 [0 ffffffff 15 800] ------- [21:255 -1:255 29 0] [0x2 2 1 [17 0] [0 4]] (REQUEST)
r 0.006984395 _13_ MAC  --- 0 AODV 48 [0 ffffffff 15 800] ------- [21:255 -1:255 29 0] [0x2 2 1 [17 0] [0 4]] (REQUEST)
r 0.006984403 _10_ MAC  --- 0 AODV 48 [0 ffffffff 15 800] ------- [21:255 -1:255 29 0] [0x2 2 1 [17 0] [0 4]] (REQUEST)
r 0.006984463 _15_ MAC  --- 0 AODV 48 [0 ffffffff 15 800] ------- [21:255 -1:255 29 0] [0x2 2 1 [17 0] [0 4]] (REQUEST)
r 0.006984533 _6_ MAC  --- 0 AODV 48 [0 ffffffff 15 800] ------- [21:255 -1:255 29 0] [0x2 2 1 [17 0] [0 4]] (REQUEST)
r 0.006984558 _8_ MAC  --- 0 AODV 48 [0 ffffffff 15 800] ------- [21:255 -1:255 29 0] [0x2 2 1 [17 0] [0 4]] (REQUEST)
r 0.006984817 _5_ MAC  --- 0 AODV 48 [0 ffffffff 15 800] ------- [21:255 -1:255 29 0] [0x2 2 1 [17 0] [0 4]] (REQUEST)
r 0.006984868 _9_ MAC  --- 0 AODV 48 [0 ffffffff 15 800] ------- [21:255 -1:255 29 0] [0x2 2 1 [17 0] [0 4]] (REQUEST)
r 0.006984880 _3_ MAC  --- 0 AODV 48 [0 ffffffff 15 800] ------- [21:255 -1:255 29 0] [0x2 2 1 [17 0] [0 4]] (REQUEST)
r 0.006985028 _4_ MAC  --- 0 AODV 48 [0 ffffffff 15 800] ------- [21:255 -1:255 29 0] [0x2 2 1 [17 0] [0 4]] (REQUEST)
r 0.006985170 _2_ MAC  --- 0 AODV 48 [0 ffffffff 15 800] ------- [21:255 -1:255 29 0] [0x2 2 1 [17 0] [0 4]] (REQUEST)
r 0.006985412 _1_ MAC  --- 0 AODV 48 [0 ffffffff 15 800] ------- [21:255 -1:255 29 0] [0x2 2 1 [17 0] [0 4]] (REQUEST)
r 0.007008423 _18_ RTR  --- 0 AODV 48 [0 ffffffff 15 800] ------- [21:255 -1:255 29 0] [0x2 2 1 [17 0] [0 4]] (REQUEST)
r 0.007008693 _20_ RTR  --- 0 AODV 48 [0 ffffffff 15 800] ------- [21:255 -1:255 29 0] [0x2 2 1 [17 0] [0 4]] (REQUEST)
r 0.007008733 _17_ RTR  --- 0 AODV 48 [0 ffffffff 15 800] ------- [21:255 -1:255 29 0] [0x2 2 1 [17 0] [0 4]] (REQUEST)
r 0.007008827 _11_ RTR  --- 0 AODV 48 [0 ffffffff 15 800] ------- [21:255 -1:255 29 0] [0x2 2 1 [17 0] [0 4]] (REQUEST)
r 0.007008842 _0_ RTR  --- 0 AODV 48 [0 ffffffff 15 800] ------- [21:255 -1:255 29 0] [0x2 2 1 [17 0] [0 4]] (REQUEST)
r 0.007008944 _19_ RTR  --- 0 AODV 48 [0 ffffffff 15 800] ------- [21:255 -1:255 29 0] [0x2 2 1 [17 0] [0 4]] (REQUEST)
r 0.007009015 _16_ RTR  --- 0 AODV 48 [0 ffffffff 15 800] ------- [21:255 -1:255 29 0] [0x2 2 1 [17 0] [0 4]] (REQUEST)
r 0.007009093 _12_ RTR  --- 0 AODV 48 [0 ffffffff 15 800] ------- [21:255 -1:255 29 0] [0x2 2 1 [17 0] [0 4]] (REQUEST)
r 0.007009219 _14_ RTR  --- 0 AODV 48 [0 ffffffff 15 800] ------- [21:255 -1:255 29 0] [0x2 2 1 [17 0] [0 4]] (REQUEST)
r 0.007009351 _7_ RTR  --- 0 AODV 48 [0 ffffffff 15 800] ------- [21:255 -1:255 29 0] [0x2 2 1 [17 0] [0 4]] (REQUEST)
r 0.007009395 _13_ RTR  --- 0 AODV 48 [0 ffffffff 15 800] ------- [21:255 -1:255 29 0] [0x2 2 1 [17 0] [0 4]] (REQUEST)
r 0.007009403 _10_ RTR  --- 0 AODV 48 [0 ffffffff 15 800] ------- [21:255 -1:255 29 0] [0x2 2 1 [17 0] [0 4]] (REQUEST)
r 0.007009463 _15_ RTR  --- 0 AODV 48 [0 ffffffff 15 800] ------- [21:255 -1:255 29 0] [0x2 2 1 [17 0] [0 4]] (REQUEST)
r 0.007009533 _6_ RTR  --- 0 AODV 48 [0 ffffffff 15 800] ------- [21:255 -1:255 29 0] [0x2 2 1 [17 0] [0 4]] (REQUEST)
r 0.007009558 _8_ RTR  --- 0 AODV 48 [0 ffffffff 15 800] ------- [21:255 -1:255 29 0] [0x2 2 1 [17 0] [0 4]] (REQUEST)
r 0.007009817 _5_ RTR  --- 0 AODV 48 [0 ffffffff 15 800] ------- [21:255 -1:255 29 0] [0x2 2 1 [17 0] [0 4]] (REQUEST)
r 0.007009868 _9_ RTR  --- 0 AODV 48 [0 ffffffff 15 800] ------- [21:255 -1:255 29 0] [0x2 2 1 [17 0] [0 4]] (REQUEST)
r 0.007009880 _3_ RTR  --- 0 AODV 48 [0 ffffffff 15 800] ------- [21:255 -1:255 29 0] [0x2 2 1 [17 0] [0 4]] (REQUEST)
r 0.007010028 _4_ RTR  --- 0 AODV 48 [0 ffffffff 15 800] ------- [21:255 -1:255 29 0] [0x2 2 1 [17 0] [0 4]] (REQUEST)
r 0.007010170 _2_ RTR  --- 0 AODV 48 [0 ffffffff 15 800] ------- [21:255 -1:255 29 0] [0x2 2 1 [17 0] [0 4]] (REQUEST)
r 0.007010412 _1_ RTR  --- 0 AODV 48 [0 ffffffff 15 800] ------- [21:255 -1:255 29 0] [0x2 2 1 [17 0] [0 4]] (REQUEST)
s 0.007094403 _10_ MAC  --- 0 AODV 106 [0 ffffffff a 800] ------- [10:255 -1:255 29 0] [0x2 2 1 [17 0] [0 4]] (REQUEST)
s 0.007395030 _5_ RTR  --- 0 AODV 48 [0 ffffffff 0 800] ------- [5:255 -1:255 29 0] [0x2 2 1 [17 0] [0 4]] (REQUEST)
s 0.007879117 _8_ RTR  --- 0 AODV 48 [0 ffffffff 0 800] ------- [8:255 -1:255 29 0] [0x2 2 1 [17 0] [0 4]] (REQUEST)
r 0.007942900 _7_ MAC  --- 0 AODV 48 [0 ffffffff a 800] ------- [10:255 -1:255 29 0] [0x2 2 1 [17 0] [0 4]] (REQUEST)
r 0.007942934 _12_ MAC  --- 0 AODV 48 [0 ffffffff a 800] ------- [10:255 -1:255 29 0] [0x2 2 1 [17 0] [0 4]] (REQUEST)
r 0.007943064 _11_ MAC  --- 0 AODV 48 [0 ffffffff a 800] ------- [10:255 -1:255 29 0] [0x2 2 1 [17 0] [0 4]] (REQUEST)
r 0.007943090 _5_ MAC  --- 0 AODV 48 [0 ffffffff a 800] ------- [10:255 -1:255 29 0] [0x2 2 1 [17 0] [0 4]] (REQUEST)
r 0.007943248 _6_ MAC  --- 0 AODV 48 [0 ffffffff a 800] ------- [10:255 -1:255 29 0] [0x2 2 1 [17 0] [0 4]] (REQUEST)
r 0.007943391 _18_ MAC  --- 0 AODV 48 [0 ffffffff a 800] ------- [10:255 -1:255 29 0] [0x2 2 1 [17 0] [0 4]] (REQUEST)
r 0.007943508 _19_ MAC  --- 0 AODV 48 [0 ffffffff a 800] ------- [10:255 -1:255 29 0] [0x2 2 1 [17 0] [0 4]] (REQUEST)
r 0.007943527 _4_ MAC  --- 0 AODV 48 [0 ffffffff a 800] ------- [10:255 -1:255 29 0] [0x2 2 1 [17 0] [0 4]] (REQUEST)
r 0.007943531 _0_ MAC  --- 0 AODV 48 [0 ffffffff a 800] ------- [10:255 -1:255 29 0] [0x2 2 1 [17 0] [0 4]] (REQUEST)
r 0.007943595 _13_ MAC  --- 0 AODV 48 [0 ffffffff a 800] ------- [10:255 -1:255 29 0] [0x2 2 1 [17 0] [0 4]] (REQUEST)
r 0.007943787 _3_ MAC  --- 0 AODV 48 [0 ffffffff a 800] ------- [10:255 -1:255 29 0] [0x2 2 1 [17 0] [0 4]] (REQUEST)
r 0.007943828 _21_ MAC  --- 0 AODV 48 [0 ffffffff a 800] ------- [10:255 -1:255 29 0] [0x2 2 1 [17 0] [0 4]] (REQUEST)
r 0.007943935 _8_ MAC  --- 0 AODV 48 [0 ffffffff a 800] ------- [10:255 -1:255 29 0] [0x2 2 1 [17 0] [0 4]] (REQUEST)
r 0.007943987 _20_ MAC  --- 0 AODV 48 [0 ffffffff a 800] ------- [10:255 -1:255 29 0] [0x2 2 1 [17 0] [0 4]] (REQUEST)
r 0.007943993 _14_ MAC  --- 0 AODV 48 [0 ffffffff a 800] ------- [10:255 -1:255 29 0] [0x2 2 1 [17 0] [0 4]] (REQUEST)
r 0.007944016 _17_ MAC  --- 0 AODV 48 [0 ffffffff a 800] ------- [10:255 -1:255 29 0] [0x2 2 1 [17 0] [0 4]] (REQUEST)
r 0.007944081 _1_ MAC  --- 0 AODV 48 [0 ffffffff a 800] ------- [10:255 -1:255 29 0] [0x2 2 1 [17 0] [0 4]] (REQUEST)
r 0.007944213 _2_ MAC  --- 0 AODV 48 [0 ffffffff a 800] ------- [10:255 -1:255 29 0] [0x2 2 1 [17 0] [0 4]] (REQUEST)
r 0.007944243 _16_ MAC  --- 0 AODV 48 [0 ffffffff a 800] ------- [10:255 -1:255 29 0] [0x2 2 1 [17 0] [0 4]] (REQUEST)
r 0.007944379 _9_ MAC  --- 0 AODV 48 [0 ffffffff a 800] ------- [10:255 -1:255 29 0] [0x2 2 1 [17 0] [0 4]] (REQUEST)
r 0.007944419 _15_ MAC  --- 0 AODV 48 [0 ffffffff a 800] ------- [10:255 -1:255 29 0] [0x2 2 1 [17 0] [0 4]] (REQUEST)
r 0.007967900 _7_ RTR  --- 0 AODV 48 [0 ffffffff a 800] ------- [10:255 -1:255 29 0] [0x2 2 1 [17 0] [0 4]] (REQUEST)
r 0.007967934 _12_ RTR  --- 0 AODV 48 [0 ffffffff a 800] ------- [10:255 -1:255 29 0] [0x2 2 1 [17 0] [0 4]] (REQUEST)
r 0.007968064 _11_ RTR  --- 0 AODV 48 [0 ffffffff a 800] ------- [10:255 -1:255 29 0] [0x2 2 1 [17 0] [0 4]] (REQUEST)
r 0.007968090 _5_ RTR  --- 0 AODV 48 [0 ffffffff a 800] ------- [10:255 -1:255 29 0] [0x2 2 1 [17 0] [0 4]] (REQUEST)
r 0.007968248 _6_ RTR  --- 0 AODV 48 [0 ffffffff a 800] ------- [10:255 -1:255 29 0] [0x2 2 1 [17 0] [0 4]] (REQUEST)
r 0.007968391 _18_ RTR  --- 0 AODV 48 [0 ffffffff a 800] ------- [10:255 -1:255 29 0] [0x2 2 1 [17 0] [0 4]] (REQUEST)
r 0.007968508 _19_ RTR  --- 0 AODV 48 [0 ffffffff a 800] ------- [10:255 -1:255 29 0] [0x2 2 1 [17 0] [0 4]] (REQUEST)
r 0.007968527 _4_ RTR  --- 0 AODV 48 [0 ffffffff a 800] ------- [10:255 -1:255 29 0] [0x2 2 1 [17 0] [0 4]] (REQUEST)
r 0.007968531 _0_ RTR  --- 0 AODV 48 [0 ffffffff a 800] ------- [10:255 -1:255 29 0] [0x2 2 1 [17 0] [0 4]] (REQUEST)
r 0.007968595 _13_ RTR  --- 0 AODV 48 [0 ffffffff a 800] ------- [10:255 -1:255 29 0] [0x2 2 1 [17 0] [0 4]] (REQUEST)
r 0.007968787 _3_ RTR  --- 0 AODV 48 [0 ffffffff a 800] ------- [10:255 -1:255 29 0] [0x2 2 1 [17 0] [0 4]] (REQUEST)
r 0.007968828 _21_ RTR  --- 0 AODV 48 [0 ffffffff a 800] ------- [10:255 -1:255 29 0] [0x2 2 1 [17 0] [0 4]] (REQUEST)
r 0.007968935 _8_ RTR  --- 0 AODV 48 [0 ffffffff a 800] ------- [10:255 -1:255 29 0] [0x2 2 1 [17 0] [0 4]] (REQUEST)