M 0.00000 1 (36.00, 529.00, 0.00), (939.00, 810.00), 10.00
M 0.00000 2 (143.00, 666.00, 0.00), (356.00, 102.00), 15.00
M 0.00000 3 (201.00, 552.00, 0.00), (409.00, 171.00), 30.00
M 0.00000 4 (147.00, 403.00, 0.00), (279.00, 233.00), 20.00
M 0.00000 5 (230.00, 291.00, 0.00), (89.00, 63.00), 0.00
M 0.00000 6 (295.00, 419.00, 0.00), (820.00, 27.00), 10.00
M 0.00000 7 (363.00, 335.00, 0.00), (985.00, 124.00), 0.00
M 0.00000 8 (334.00, 647.00, 0.00), (174.00, 515.00), 20.00
M 0.00000 9 (304.00, 777.00, 0.00), (594.00, 275.00), 30.00
M 0.00000 10 (412.00, 194.00, 0.00), (899.00, 827.00), 5.00
M 0.00000 11 (519.00, 361.00, 0.00), (198.00, 808.00), 35.00
M 0.00000 12 (569.00, 167.00, 0.00), (351.00, 724.00), 25.00
M 0.00000 13 (349.00, 546.00, 0.00), (97.00, 547.00), 15.00
M 0.00000 14 (466.00, 668.00, 0.00), (148.00, 488.00), 25.00
M 0.00000 15 (489.00, 794.00, 0.00), (842.00, 123.00), 5.00
M 0.00000 16 (606.00, 711.00, 0.00), (478.00, 148.00), 25.00
M 0.00000 17 (630.00, 626.00, 0.00), (41.00, 59.00), 0.00
M 0.00000 18 (666.00, 347.00, 0.00), (237.00, 789.00), 30.00
M 0.00000 19 (741.00, 152.00, 0.00), (59.00, 822.00), 20.00
M 0.00000 20 (882.00, 264.00, 0.00), (900.00, 150.00), 0.00
M 0.00000 21 (761.00, 441.00, 0.00), (239.00, 684.00), 25.00
s 0.000000000 _0_ AGT  --- 0 cbr 1000 [0 0 0 0] ------- [0:0 17:0 32 0] [0] 0 0
r 0.000000000 _0_ RTR  --- 0 cbr 1000 [0 0 0 0] ------- [0:0 17:0 32 0] [0] 0 0
v 0 eval {set sim_annotation {MOBILE NODE MOVEMENTS}}
s 0.000000000 _0_ RTR  --- 0 AOMDV 52 [0 0 0 0] ------- [0:255 -1:255 30 0] [0x2 0 1 [17 0] [0 4]] (REQUEST)
s 0.000315000 _0_ MAC  --- 0 AOMDV 110 [0 ffffffff 0 800] ------- [0:255 -1:255 30 0] [0x2 0 1 [17 0] [0 4]] (REQUEST)
r 0.001195520 _11_ MAC  --- 0 AOMDV 52 [0 ffffffff 0 800] ------- [0:255 -1:255 30 0] [0x2 0 1 [17 0] [0 4]] (REQUEST)
r 0.001195527 _14_ MAC  --- 0 AOMDV 52 [0 ffffffff 0 800] ------- [0:255 -1:255 30 0] [0x2 0 1 [17 0] [0 4]] (REQUEST)
r 0.001195533 _17_ MAC  --- 0 AOMDV 52 [0 ffffffff 0 800] ------- [0:255 -1:255 30 0] [0x2 0 1 [17 0] [0 4]] (REQUEST)
r 0.001195555 _13_ MAC  --- 0 AOMDV 52 [0 ffffffff 0 800] ------- [0:255 -1:255 30 0] [0x2 0 1 [17 0] [0 4]] (REQUEST)
r 0.001195717 _16_ MAC  --- 0 AOMDV 52 [0 ffffffff 0 800] ------- [0:255 -1:255 30 0] [0x2 0 1 [17 0] [0 4]] (REQUEST)
r 0.001195737 _8_ MAC  --- 0 AOMDV 52 [0 ffffffff 0 800] ------- [0:255 -1:255 30 0] [0x2 0 1 [17 0] [0 4]] (REQUEST)
r 0.001195762 _18_ MAC  --- 0 AOMDV 52 [0 ffffffff 0 800] ------- [0:255 -1:255 30 0] [0x2 0 1 [17 0] [0 4]] (REQUEST)
r 0.001195786 _7_ MAC  --- 0 AOMDV 52 [0 ffffffff 0 800] ------- [0:255 -1:255 30 0] [0x2 0 1 [17 0] [0 4]] (REQUEST)
r 0.001195797 _6_ MAC  --- 0 AOMDV 52 [0 ffffffff 0 800] ------- [0:255 -1:255 30 0] [0x2 0 1 [17 0] [0 4]] (REQUEST)
r 0.001195865 _21_ MAC  --- 0 AOMDV 52 [0 ffffffff 0 800] ------- [0:255 -1:255 30 0] [0x2 0 1 [17 0] [0 4]] (REQUEST)
r 0.001195927 _15_ MAC  --- 0 AOMDV 52 [0 ffffffff 0 800] ------- [0:255 -1:255 30 0] [0x2 0 1 [17 0] [0 4]] (REQUEST)
r 0.001196047 _3_ MAC  --- 0 AOMDV 52 [0 ffffffff 0 800] ------- [0:255 -1:255 30 0] [0x2 0 1 [17 0] [0 4]] (REQUEST)
r 0.001196112 _9_ MAC  --- 0 AOMDV 52 [0 ffffffff 0 800] ------- [0:255 -1:255 30 0] [0x2 0 1 [17 0] [0 4]] (REQUEST)
r 0.001196128 _10_ MAC  --- 0 AOMDV 52 [0 ffffffff 0 800] ------- [0:255 -1:255 30 0] [0x2 0 1 [17 0] [0 4]] (REQUEST)
r 0.001196181 _12_ MAC  --- 0 AOMDV 52 [0 ffffffff 0 800] ------- [0:255 -1:255 30 0] [0x2 0 1 [17 0] [0 4]] (REQUEST)
r 0.001196207 _5_ MAC  --- 0 AOMDV 52 [0 ffffffff 0 800] ------- [0:255 -1:255 30 0] [0x2 0 1 [17 0] [0 4]] (REQUEST)
r 0.001196278 _4_ MAC  --- 0 AOMDV 52 [0 ffffffff 0 800] ------- [0:255 -1:255 30 0] [0x2 0 1 [17 0] [0 4]] (REQUEST)
r 0.001196330 _2_ MAC  --- 0 AOMDV 52 [0 ffffffff 0 800] ------- [0:255 -1:255 30 0] [0x2 0 1 [17 0] [0 4]] (REQUEST)
r 0.001196435 _19_ MAC  --- 0 AOMDV 52 [0 ffffffff 0 800] ------- [0:255 -1:255 30 0] [0x2 0 1 [17 0] [0 4]] (REQUEST)
r 0.001196491 _20_ MAC  --- 0 AOMDV 52 [0 ffffffff 0 800] ------- [0:255 -1:255 30 0] [0x2 0 1 [17 0] [0 4]] (REQUEST)
r 0.001196590 _1_ MAC  --- 0 AOMDV 52 [0 ffffffff 0 800] ------- [0:255 -1:255 30 0] [0x2 0 1 [17 0] [0 4]] (REQUEST)
r 0.001220520 _11_ RTR  --- 0 AOMDV 52 [0 ffffffff 0 800] ------- [0:255 -1:255 30 0] [0x2 0 1 [17 0] [0 4]] (REQUEST)
r 0.001220527 _14_ RTR  --- 0 AOMDV 52 [0 ffffffff 0 800] ------- [0:255 -1:255 30 0] [0x2 0 1 [17 0] [0 4]] (REQUEST)
r 0.001220533 _17_ RTR  --- 0 AOMDV 52 [0 ffffffff 0 800] ------- [0:255 -1:255 30 0] [0x2 0 1 [17 0] [0 4]] (REQUEST)
s 0.001220533 _17_ RTR  --- 0 AOMDV 52 [0 0 0 0] ------- [17:255 0:255 30 0] [0x4 0 [17 2] 10.000000] (REPLY) [1 0]
r 0.001220555 _13_ RTR  --- 0 AOMDV 52 [0 ffffffff 0 800] ------- [0:255 -1:255 30 0] [0x2 0 1 [17 0] [0 4]] (REQUEST)
r 0.001220717 _16_ RTR  --- 0 AOMDV 52 [0 ffffffff 0 800] ------- [0:255 -1:255 30 0] [0x2 0 1 [17 0] [0 4]] (REQUEST)
r 0.001220737 _8_ RTR  --- 0 AOMDV 52 [0 ffffffff 0 800] ------- [0:255 -1:255 30 0] [0x2 0 1 [17 0] [0 4]] (REQUEST)
r 0.001220762 _18_ RTR  --- 0 AOMDV 52 [0 ffffffff 0 800] ------- [0:255 -1:255 30 0] [0x2 0 1 [17 0] [0 4]] (REQUEST)
r 0.001220786 _7_ RTR  --- 0 AOMDV 52 [0 ffffffff 0 800] ------- [0:255 -1:255 30 0] [0x2 0 1 [17 0] [0 4]] (REQUEST)
r 0.001220797 _6_ RTR  --- 0 AOMDV 52 [0 ffffffff 0 800] ------- [0:255 -1:255 30 0] [0x2 0 1 [17 0] [0 4]] (REQUEST)
r 0.001220865 _21_ RTR  --- 0 AOMDV 52 [0 ffffffff 0 800] ------- [0:255 -1:255 30 0] [0x2 0 1 [17 0] [0 4]] (REQUEST)
r 0.001220927 _15_ RTR  --- 0 AOMDV 52 [0 ffffffff 0 800] ------- [0:255 -1:255 30 0] [0x2 0 1 [17 0] [0 4]] (REQUEST)
r 0.001221047 _3_ RTR  --- 0 AOMDV 52 [0 ffffffff 0 800] ------- [0:255 -1:255 30 0] [0x2 0 1 [17 0] [0 4]] (REQUEST)
r 0.001221112 _9_ RTR  --- 0 AOMDV 52 [0 ffffffff 0 800] ------- [0:255 -1:255 30 0] [0x2 0 1 [17 0] [0 4]] (REQUEST)
r 0.001221128 _10_ RTR  --- 0 AOMDV 52 [0 ffffffff 0 800] ------- [0:255 -1:255 30 0] [0x2 0 1 [17 0] [0 4]] (REQUEST)
r 0.001221181 _12_ RTR  --- 0 AOMDV 52 [0 ffffffff 0 800] ------- [0:255 -1:255 30 0] [0x2 0 1 [17 0] [0 4]] (REQUEST)
r 0.001221207 _5_ RTR  --- 0 AOMDV 52 [0 ffffffff 0 800] ------- [0:255 -1:255 30 0] [0x2 0 1 [17 0] [0 4]] (REQUEST)
r 0.001221278 _4_ RTR  --- 0 AOMDV 52 [0 ffffffff 0 800] ------- [0:255 -1:255 30 0] [0x2 0 1 [17 0] [0 4]] (REQUEST)
r 0.001221330 _2_ RTR  --- 0 AOMDV 52 [0 ffffffff 0 800] ------- [0:255 -1:255 30 0] [0x2 0 1 [17 0] [0 4]] (REQUEST)
r 0.001221435 _19_ RTR  --- 0 AOMDV 52 [0 ffffffff 0 800] ------- [0:255 -1:255 30 0] [0x2 0 1 [17 0] [0 4]] (REQUEST)
r 0.001221491 _20_ RTR  --- 0 AOMDV 52 [0 ffffffff 0 800] ------- [0:255 -1:255 30 0] [0x2 0 1 [17 0] [0 4]] (REQUEST)
r 0.001221590 _1_ RTR  --- 0 AOMDV 52 [0 ffffffff 0 800] ------- [0:255 -1:255 30 0] [0x2 0 1 [17 0] [0 4]] (REQUEST)
s 0.001278810 _13_ RTR  --- 0 AOMDV 52 [0 ffffffff 0 800] ------- [13:255 -1:255 29 0] [0x2 1 1 [17 0] [0 4]] (REQUEST)
s 0.001453810 _13_ MAC  --- 0 AOMDV 110 [0 ffffffff d 800] ------- [13:255 -1:255 29 0] [0x2 1 1 [17 0] [0 4]] (REQUEST)
r 0.002334150 _8_ MAC  --- 0 AOMDV 52 [0 ffffffff d 800] ------- [13:255 -1:255 29 0] [0x2 1 1 [17 0] [0 4]] (REQUEST)
r 0.002334270 _6_ MAC  --- 0 AOMDV 52 [0 ffffffff d 800] ------- [13:255 -1:255 29 0] [0x2 1 1 [17 0] [0 4]] (REQUEST)
r 0.002334303 _3_ MAC  --- 0 AOMDV 52 [0 ffffffff d 800] ------- [13:255 -1:255 29 0] [0x2 1 1 [17 0] [0 4]] (REQUEST)
r 0.002334365 _0_ MAC  --- 0 AOMDV 52 [0 ffffffff d 800] ------- [13:255 -1:255 29 0] [0x2 1 1 [17 0] [0 4]] (REQUEST)
r 0.002334373 _14_ MAC  --- 0 AOMDV 52 [0 ffffffff d 800] ------- [13:255 -1:255 29 0] [0x2 1 1 [17 0] [0 4]] (REQUEST)
r 0.002334515 _7_ MAC  --- 0 AOMDV 52 [0 ffffffff d 800] ------- [13:255 -1:255 29 0] [0x2 1 1 [17 0] [0 4]] (REQUEST)
r 0.002334594 _9_ MAC  --- 0 AOMDV 52 [0 ffffffff d 800] ------- [13:255 -1:255 29 0] [0x2 1 1 [17 0] [0 4]] (REQUEST)
r 0.002334604 _2_ MAC  --- 0 AOMDV 52 [0 ffffffff d 800] ------- [13:255 -1:255 29 0] [0x2 1 1 [17 0] [0 4]] (REQUEST)
r 0.002334635 _4_ MAC  --- 0 AOMDV 52 [0 ffffffff d 800] ------- [13:255 -1:255 29 0] [0x2 1 1 [17 0] [0 4]] (REQUEST)
r 0.002334647 _11_ MAC  --- 0 AOMDV 52 [0 ffffffff d 800] ------- [13:255 -1:255 29 0] [0x2 1 1 [17 0] [0 4]] (REQUEST)
r 0.002334748 _5_ MAC  --- 0 AOMDV 52 [0 ffffffff d 800] ------- [13:255 -1:255 29 0] [0x2 1 1 [17 0] [0 4]] (REQUEST)
r 0.002334759 _15_ MAC  --- 0 AOMDV 52 [0 ffffffff d 800] ------- [13:255 -1:255 29 0] [0x2 1 1 [17 0] [0 4]] (REQUEST)
r 0.002334784 _17_ MAC  --- 0 AOMDV 52 [0 ffffffff d 800] ------- [13:255 -1:255 29 0] [0x2 1 1 [17 0] [0 4]] (REQUEST)
r 0.002334828 _16_ MAC  --- 0 AOMDV 52 [0 ffffffff d 800] ------- [13:255 -1:255 29 0] [0x2 1 1 [17 0] [0 4]] (REQUEST)
r 0.002334854 _1_ MAC  --- 0 AOMDV 52 [0 ffffffff d 800] ------- [13:255 -1:255 29 0] [0x2 1 1 [17 0] [0 4]] (REQUEST)
r 0.002335002 _10_ MAC  --- 0 AOMDV 52 [0 ffffffff d 800] ------- [13:255 -1:255 29 0] [0x2 1 1 [17 0] [0 4]] (REQUEST)
r 0.002335057 _18_ MAC  --- 0 AOMDV 52 [0 ffffffff d 800] ------- [13:255 -1:255 29 0] [0x2 1 1 [17 0] [0 4]] (REQUEST)
r 0.002335227 _21_ MAC  --- 0 AOMDV 52 [0 ffffffff d 800] ------- [13:255 -1:255 29 0] [0x2 1 1 [17 0] [0 4]] (REQUEST)
r 0.002335270 _12_ MAC  --- 0 AOMDV 52 [0 ffffffff d 800] ------- [13:255 -1:255 29 0] [0x2 1 1 [17 0] [0 4]] (REQUEST)
r 0.002335662 _19_ MAC  --- 0 AOMDV 52 [0 ffffffff d 800] ------- [13:255 -1:255 29 0] [0x2 1 1 [17 0] [0 4]] (REQUEST)
r 0.002335820 _20_ MAC  --- 0 AOMDV 52 [0 ffffffff d 800] ------- [13:255 -1:255 29 0] [0x2 1 1 [17 0] [0 4]] (REQUEST)
r 0.002359150 _8_ RTR  --- 0 AOMDV 52 [0 ffffffff d 800] ------- [13:255 -1:255 29 0] [0x2 1 1 [17 0] [0 4]] (REQUEST)
r 0.002359270 _6_ RTR  --- 0 AOMDV 52 [0 ffffffff d 800] ------- [13:255 -1:255 29 0] [0x2 1 1 [17 0] [0 4]] (REQUEST)
r 0.002359303 _3_ RTR  --- 0 AOMDV 52 [0 ffffffff d 800] ------- [13:255 -1:255 29 0] [0x2 1 1 [17 0] [0 4]] (REQUEST)
r 0.002359365 _0_ RTR  --- 0 AOMDV 52 [0 ffffffff d 800] ------- [13:255 -1:255 29 0] [0x2 1 1 [17 0] [0 4]] (REQUEST)
r 0.002359373 _14_ RTR  --- 0 AOMDV 52 [0 ffffffff d 800] ------- [13:255 -1:255 29 0] [0x2 1 1 [17 0] [0 4]] (REQUEST)
r 0.002359515 _7_ RTR  --- 0 AOMDV 52 [0 ffffffff d 800] ------- [13:255 -1:255 29 0] [0x2 1 1 [17 0] [0 4]] (REQUEST)
r 0.002359594 _9_ RTR  --- 0 AOMDV 52 [0 ffffffff d 800] ------- [13:255 -1:255 29 0] [0x2 1 1 [17 0] [0 4]] (REQUEST)
r 0.002359604 _2_ RTR  --- 0 AOMDV 52 [0 ffffffff d 800] ------- [13:255 -1:255 29 0] [0x2 1 1 [17 0] [0 4]] (REQUEST)
r 0.002359635 _4_ RTR  --- 0 AOMDV 52 [0 ffffffff d 800] ------- [13:255 -1:255 29 0] [0x2 1 1 [17 0] [0 4]] (REQUEST)
r 0.002359647 _11_ RTR  --- 0 AOMDV 52 [0 ffffffff d 800] ------- [13:255 -1:255 29 0] [0x2 1 1 [17 0] [0 4]] (REQUEST)
r 0.002359748 _5_ RTR  --- 0 AOMDV 52 [0 ffffffff d 800] ------- [13:255 -1:255 29 0] [0x2 1 1 [17 0] [0 4]] (REQUEST)
r 0.002359759 _15_ RTR  --- 0 AOMDV 52 [0 ffffffff d 800] ------- [13:255 -1:255 29 0] [0x2 1 1 [17 0] [0 4]] (REQUEST)
r 0.002359784 _17_ RTR  --- 0 AOMDV 52 [0 ffffffff d 800] ------- [13:255 -1:255 29 0] [0x2 1 1 [17 0] [0 4]] (REQUEST)
s 0.002359784 _17_ RTR  --- 0 AOMDV 52 [0 0 0 0] ------- [17:255 0:255 30 13] [0x4 0 [17 2] 10.000000] (REPLY) [1 13]
r 0.002359828 _16_ RTR  --- 0 AOMDV 52 [0 ffffffff d 800] ------- [13:255 -1:255 29 0] [0x2 1 1 [17 0] [0 4]] (REQUEST)
r 0.002359854 _1_ RTR  --- 0 AOMDV 52 [0 ffffffff d 800] ------- [13:255 -1:255 29 0] [0x2 1 1 [17 0] [0 4]] (REQUEST)
r 0.002360002 _10_ RTR  --- 0 AOMDV 52 [0 ffffffff d 800] ------- [13:255 -1:255 29 0] [0x2 1 1 [17 0] [0 4]] (REQUEST)
r 0.002360057 _18_ RTR  --- 0 AOMDV 52 [0 ffffffff d 800] ------- [13:255 -1:255 29 0] [0x2 1 1 [17 0] [0 4]] (REQUEST)
r 0.002360227 _21_ RTR  --- 0 AOMDV 52 [0 ffffffff d 800] ------- [13:255 -1:255 29 0] [0x2 1 1 [17 0] [0 4]] (REQUEST)
r 0.002360270 _12_ RTR  --- 0 AOMDV 52 [0 ffffffff d 800] ------- [13:255 -1:255 29 0] [0x2 1 1 [17 0] [0 4]] (REQUEST)
r 0.002360662 _19_ RTR  --- 0 AOMDV 52 [0 ffffffff d 800] ------- [13:255 -1:255 29 0] [0x2 1 1 [17 0] [0 4]] (REQUEST)
r 0.002360820 _20_ RTR  --- 0 AOMDV 52 [0 ffffffff d 800] ------- [13:255 -1:255 29 0] [0x2 1 1 [17 0] [0 4]] (REQUEST)
s 0.002724784 _17_ MAC  --- 0 ARP 86 [0 ffffffff 11 806] ------- [REQUEST 17/17 0/0]
r 0.003413078 _16_ MAC  --- 0 ARP 28 [0 ffffffff 11 806] ------- [REQUEST 17/17 0/0]
r 0.003413317 _0_ MAC  --- 0 ARP 28 [0 ffffffff 11 806] ------- [REQUEST 17/17 0/0]
r 0.003413348 _14_ MAC  --- 0 ARP 28 [0 ffffffff 11 806] ------- [REQUEST 17/17 0/0]
r 0.003413515 _15_ MAC  --- 0 ARP 28 [0 ffffffff 11 806] ------- [REQUEST 17/17 0/0]
r 0.003413539 _21_ MAC  --- 0 ARP 28 [0 ffffffff 11 806] ------- [REQUEST 17/17 0/0]
r 0.003413721 _18_ MAC  --- 0 ARP 28 [0 ffffffff 11 806] ------- [REQUEST 17/17 0/0]
r 0.003413741 _11_ MAC  --- 0 ARP 28 [0 ffffffff 11 806] ------- [REQUEST 17/17 0/0]
r 0.003413758 _13_ MAC  --- 0 ARP 28 [0 ffffffff 11 806] ------- [REQUEST 17/17 0/0]
r 0.003413773 _8_ MAC  --- 0 ARP 28 [0 ffffffff 11 806] ------- [REQUEST 17/17 0/0]
r 0.003413981 _9_ MAC  --- 0 ARP 28 [0 ffffffff 11 806] ------- [REQUEST 17/17 0/0]
r 0.003414096 _6_ MAC  --- 0 ARP 28 [0 ffffffff 11 806] ------- [REQUEST 17/17 0/0]
r 0.003414100 _7_ MAC  --- 0 ARP 28 [0 ffffffff 11 806] ------- [REQUEST 17/17 0/0]
r 0.003414235 _3_ MAC  --- 0 ARP 28 [0 ffffffff 11 806] ------- [REQUEST 17/17 0/0]
r 0.003414254 _20_ MAC  --- 0 ARP 28 [0 ffffffff 11 806] ------- [REQUEST 17/17 0/0]
r 0.003414327 _12_ MAC  --- 0 ARP 28 [0 ffffffff 11 806] ------- [REQUEST 17/17 0/0]
r 0.003414397 _10_ MAC  --- 0 ARP 28 [0 ffffffff 11 806] ------- [REQUEST 17/17 0/0]
r 0.003414406 _19_ MAC  --- 0 ARP 28 [0 ffffffff 11 806] ------- [REQUEST 17/17 0/0]
r 0.003414412 _2_ MAC  --- 0 ARP 28 [0 ffffffff 11 806] ------- [REQUEST 17/17 0/0]
r 0.003414523 _5_ MAC  --- 0 ARP 28 [0 ffffffff 11 806] ------- [REQUEST 17/17 0/0]
r 0.003414557 _4_ MAC  --- 0 ARP 28 [0 ffffffff 11 806] ------- [REQUEST 17/17 0/0]
r 0.003414790 _1_ MAC  --- 0 ARP 28 [0 ffffffff 11 806] ------- [REQUEST 17/17 0/0]
s 0.003562784 _17_ MAC  --- 0 ARP 86 [0 ffffffff 11 806] ------- [REQUEST 17/17 0/13]
s 0.004056098 _16_ RTR  --- 0 AOMDV 52 [0 ffffffff 0 800] ------- [16:255 -1:255 29 0] [0x2 1 1 [17 0] [0 4]] (REQUEST)
r 0.004251078 _16_ MAC  --- 0 ARP 28 [0 ffffffff 11 806] ------- [REQUEST 17/17 0/13]
r 0.004251317 _0_ MAC  --- 0 ARP 28 [0 ffffffff 11 806] ------- [REQUEST 17/17 0/13]
r 0.004251348 _14_ MAC  --- 0 ARP 28 [0 ffffffff 11 806] ------- [REQUEST 17/17 0/13]
r 0.004251515 _15_ MAC  --- 0 ARP 28 [0 ffffffff 11 806] ------- [REQUEST 17/17 0/13]
r 0.004251539 _21_ MAC  --- 0 ARP 28 [0 ffffffff 11 806] ------- [REQUEST 17/17 0/13]
r 0.004251721 _18_ MAC  --- 0 ARP 28 [0 ffffffff 11 806] ------- [REQUEST 17/17 0/13]
r 0.004251741 _11_ MAC  --- 0 ARP 28 [0 ffffffff 11 806] ------- [REQUEST 17/17 0/13]
r 0.004251758 _13_ MAC  --- 0 ARP 28 [0 ffffffff 11 806] ------- [REQUEST 17/17 0/13]
r 0.004251773 _8_ MAC  --- 0 ARP 28 [0 ffffffff 11 806] ------- [REQUEST 17/17 0/13]
r 0.004251981 _9_ MAC  --- 0 ARP 28 [0 ffffffff 11 806] ------- [REQUEST 17/17 0/13]
r 0.004252096 _6_ MAC  --- 0 ARP 28 [0 ffffffff 11 806] ------- [REQUEST 17/17 0/13]
r 0.004252100 _7_ MAC  --- 0 ARP 28 [0 ffffffff 11 806] ------- [REQUEST 17/17 0/13]
r 0.004252235 _3_ MAC  --- 0 ARP 28 [0 ffffffff 11 806] ------- [REQUEST 17/17 0/13]
r 0.004252254 _20_ MAC  --- 0 ARP 28 [0 ffffffff 11 806] ------- [REQUEST 17/17 0/13]
r 0.004252327 _12_ MAC  --- 0 ARP 28 [0 ffffffff 11 806] ------- [REQUEST 17/17 0/13]
r 0.004252397 _10_ MAC  --- 0 ARP 28 [0 ffffffff 11 806] ------- [REQUEST 17/17 0/13]
r 0.004252406 _19_ MAC  --- 0 ARP 28 [0 ffffffff 11 806] ------- [REQUEST 17/17 0/13]
r 0.004252412 _2_ MAC  --- 0 ARP 28 [0 ffffffff 11 806] ------- [REQUEST 17/17 0/13]
r 0.004252523 _5_ MAC  --- 0 ARP 28 [0 ffffffff 11 806] ------- [REQUEST 17/17 0/13]
r 0.004252557 _4_ MAC  --- 0 ARP 28 [0 ffffffff 11 806] ------- [REQUEST 17/17 0/13]
r 0.004252790 _1_ MAC  --- 0 ARP 28 [0 ffffffff 11 806] ------- [REQUEST 17/17 0/13]
s 0.004346758 _13_ MAC  --- 0 RTS 44 [52e 11 d 0] 
r 0.004699732 _17_ MAC  --- 0 RTS 44 [52e 11 d 0] 
s 0.004709732 _17_ MAC  --- 0 CTS 38 [3f4 d 0 0] 
s 0.004974730 _11_ RTR  --- 0 AOMDV 52 [0 ffffffff 0 800] ------- [11:255 -1:255 29 0] [0x2 1 1 [17 0] [0 4]] (REQUEST)
r 0.005014706 _13_ MAC  --- 0 CTS 38 [3f4 d 0 0] 
s 0.005024706 _13_ MAC  --- 0 ARP 86 [13a 11 d 806] ------- [REPLY 13/13 17/17]
s 0.005189754 _21_ RTR  --- 0 AOMDV 52 [0 ffffffff 0 800] ------- [21:255 -1:255 29 0] [0x2 1 1 [17 0] [0 4]] (REQUEST)
s 0.005545172 _6_ RTR  --- 0 AOMDV 52 [0 ffffffff 0 800] ------- [6:255 -1:255 29 0] [0x2 1 1 [17 0] [0 4]] (REQUEST)
s 0.005569018 _1_ RTR  --- 0 AOMDV 52 [0 ffffffff 0 800] ------- [1:255 -1:255 29 0] [0x2 1 1 [17 0] [0 4]] (REQUEST)
r 0.005713680 _17_ MAC  --- 0 ARP 28 [13a 11 d 806] ------- [REPLY 13/13 17/17]
s 0.005723680 _17_ MAC  --- 0 ACK 38 [0 d 0 0] 
s 0.005822518 _10_ RTR  --- 0 AOMDV 52 [0 ffffffff 0 800] ------- [10:255 -1:255 29 0] [0x2 1 1 [17 0] [0 4]] (REQUEST)
r 0.006028654 _13_ MAC  --- 0 ACK 38 [0 d 0 0] 
s 0.006078435 _21_ MAC  --- 0 AOMDV 110 [0 ffffffff 15 800] ------- [21:255 -1:255 29 0] [0x2 1 1 [17 0] [0 4]] (REQUEST)
s 0.006850697 _14_ RTR  --- 0 AOMDV 52 [0 ffffffff 0 800] ------- [14:255 -1:255 29 0] [0x2 1 1 [17 0] [0 4]] (REQUEST)
r 0.006958881 _18_ MAC  --- 0 AOMDV 52 [0 ffffffff 15 800] ------- [21:255 -1:255 29 0] [0x2 1 1 [17 0] [0 4]] (REQUEST)
r 0.006959150 _20_ MAC  --- 0 AOMDV 52 [0 ffffffff 15 800] ------- [21:255 -1:255 29 0] [0x2 1 1 [17 0] [0 4]] (REQUEST)
r 0.006959190 _17_ MAC  --- 0 AOMDV 52 [0 ffffffff 15 800] ------- [21:255 -1:255 29 0] [0x2 1 1 [17 0] [0 4]] (REQUEST)
r 0.006959285 _11_ MAC  --- 0 AOMDV 52 [0 ffffffff 15 800] ------- [21:255 -1:255 29 0] [0x2 1 1 [17 0] [0 4]] (REQUEST)
r 0.006959299 _0_ MAC  --- 0 AOMDV 52 [0 ffffffff 15 800] ------- [21:255 -1:255 29 0] [0x2 1 1 [17 0] [0 4]] (REQUEST)
r 0.006959401 _19_ MAC  --- 0 AOMDV 52 [0 ffffffff 15 800] ------- [21:255 -1:255 29 0] [0x2 1 1 [17 0] [0 4]] (REQUEST)
r 0.006959472 _16_ MAC  --- 0 AOMDV 52 [0 ffffffff 15 800] ------- [21:255 -1:255 29 0] [0x2 1 1 [17 0] [0 4]] (REQUEST)
r 0.006959550 _12_ MAC  --- 0 AOMDV 52 [0 ffffffff 15 800] ------- [21:255 -1:255 29 0] [0x2 1 1 [17 0] [0 4]] (REQUEST)
r 0.006959676 _14_ MAC  --- 0 AOMDV 52 [0 ffffffff 15 800] ------- [21:255 -1:255 29 0] [0x2 1 1 [17 0] [0 4]] (REQUEST)
r 0.006959808 _7_ MAC  --- 0 AOMDV 52 [0 ffffffff 15 800] ------- [21:255 -1:255 29 0] [0x2 1 1 [17 0] [0 4]] (REQUEST)
r 0.006959852 _13_ MAC  --- 0 AOMDV 52 [0 ffffffff 15 800] ------- [21:255 -1:255 29 0] [0x2 1 1 [17 0] [0 4]] (REQUEST)
r 0.006959860 _10_ MAC  --- 0 AOMDV 52 [0 ffffffff 15 800] ------- [21:255 -1:255 29 0] [0x2 1 1 [17 0] [0 4]] (REQUEST)
r 0.006959920 _15_ MAC  --- 0 AOMDV 52 [0 ffffffff 15 800] ------- [21:255 -1:255 29 0] [0x2 1 1 [17 0] [0 4]] (REQUEST)
r 0.006959990 _6_ MAC  --- 0 AOMDV 52 [0 ffffffff 15 800] ------- [21:255 -1:255 29 0] [0x2 1 1 [17 0] [0 4]] (REQUEST)
r 0.006960015 _8_ MAC  --- 0 AOMDV 52 [0 ffffffff 15 800] ------- [21:255 -1:255 29 0] [0x2 1 1 [17 0] [0 4]] (REQUEST)
r 0.006960274 _5_ MAC  --- 0 AOMDV 52 [0 ffffffff 15 800] ------- [21:255 -1:255 29 0] [0x2 1 1 [17 0] [0 4]] (REQUEST)
r 0.006960325 _9_ MAC  --- 0 AOMDV 52 [0 ffffffff 15 800] ------- [21:255 -1:255 29 0] [0x2 1 1 [17 0] [0 4]] (REQUEST)
r 0.006960337 _3_ MAC  --- 0 AOMDV 52 [0 ffffffff 15 800] ------- [21:255 -1:255 29 0] [0x2 1 1 [17 0] [0 4]] (REQUEST)
r 0.006960485 _4_ MAC  --- 0 AOMDV 52 [0 ffffffff 15 800] ------- [21:255 -1:255 29 0] [0x2 1 1 [17 0] [0 4]] (REQUEST)
r 0.006960627 _2_ MAC  --- 0 AOMDV 52 [0 ffffffff 15 800] ------- [21:255 -1:255 29 0] [0x2 1 1 [17 0] [0 4]] (REQUEST)
r 0.006960869 _1_ MAC  --- 0 AOMDV 52 [0 ffffffff 15 800] ------- [21:255 -1:255 29 0] [0x2 1 1 [17 0] [0 4]] (REQUEST)
r 0.006983881 _18_ RTR  --- 0 AOMDV 52 [0 ffffffff 15 800] ------- [21:255 -1:255 29 0] [0x2 1 1 [17 0] [0 4]] (REQUEST)
r 0.006984150 _20_ RTR  --- 0 AOMDV 52 [0 ffffffff 15 800] ------- [21:255 -1:255 29 0] [0x2 1 1 [17 0] [0 4]] (REQUEST)
r 0.006984190 _17_ RTR  --- 0 AOMDV 52 [0 ffffffff 15 800] ------- [21:255 -1:255 29 0] [0x2 1 1 [17 0] [0 4]] (REQUEST)
s 0.006984190 _17_ RTR  --- 0 AOMDV 52 [0 0 0 0] ------- [17:255 0:255 30 21] [0x4 0 [17 2] 10.000000] (REPLY) [1 21]
r 0.006984285 _11_ RTR  --- 0 AOMDV 52 [0 ffffffff 15 800] ------- [21:255 -1:255 29 0] [0x2 1 1 [17 0] [0 4]] (REQUEST)
r 0.006984299 _0_ RTR  --- 0 AOMDV 52 [0 ffffffff 15 800] ------- [21:255 -1:255 29 0] [0x2 1 1 [17 0] [0 4]] (REQUEST)
r 0.006984401 _19_ RTR  --- 0 AOMDV 52 [0 ffffffff 15 800] ------- [21:255 -1:255 29 0] [0x2 1 1 [17 0] [0 4]] (REQUEST)
r 0.006984472 _16_ RTR  --- 0 AOMDV 52 [0 ffffffff 15 800] ------- [21:255 -1:255 29 0] [0x2 1 1 [17 0] [0 4]] (REQUEST)
r 0.006984550 _12_ RTR  --- 0 AOMDV 52 [0 ffffffff 15 800] ------- [21:255 -1:255 29 0] [0x2 1 1 [17 0] [0 4]] (REQUEST)
r 0.006984676 _14_ RTR  --- 0 AOMDV 52 [0 ffffffff 15 800] ------- [21:255 -1:255 29 0] [0x2 1 1 [17 0] [0 4]] (REQUEST)
r 0.006984808 _7_ RTR  --- 0 AOMDV 52 [0 ffffffff 15 800] ------- [21:255 -1:255 29 0] [0x2 1 1 [17 0] [0 4]] (REQUEST)
r 0.006984852 _13_ RTR  --- 0 AOMDV 52 [0 ffffffff 15 800] ------- [21:255 -1:255 29 0] [0x2 1 1 [17 0] [0 4]] (REQUEST)
r 0.006984860 _10_ RTR  --- 0 AOMDV 52 [0 ffffffff 15 800] ------- [21:255 -1:255 29 0] [0x2 1 1 [17 0] [0 4]] (REQUEST)
r 0.006984920 _15_ RTR  --- 0 AOMDV 52 [0 ffffffff 15 800] ------- [21:255 -1:255 29 0] [0x2 1 1 [17 0] [0 4]] (REQUEST)
r 0.006984990 _6_ RTR  --- 0 AOMDV 52 [0 ffffffff 15 800] ------- [21:255 -1:255 29 0] [0x2 1 1 [17 0] [0 4]] (REQUEST)
r 0.006985015 _8_ RTR  --- 0 AOMDV 52 [0 ffffffff 15 800] ------- [21:255 -1:255 29 0] [0x2 1 1 [17 0] [0 4]] (REQUEST)
r 0.006985274 _5_ RTR  --- 0 AOMDV 52 [0 ffffffff 15 800] ------- [21:255 -1:255 29 0] [0x2 1 1 [17 0] [0 4]] (REQUEST)
r 0.006985325 _9_ RTR  --- 0 AOMDV 52 [0 ffffffff 15 800] ------- [21:255 -1:255 29 0] [0x2 1 1 [17 0] [0 4]] (REQUEST)
r 0.006985337 _3_ RTR  --- 0 AOMDV 52 [0 ffffffff 15 800] ------- [21:255 -1:255 29 0] [0x2 1 1 [17 0] [0 4]] (REQUEST)
r 0.006985485 _4_ RTR  --- 0 AOMDV 52 [0 ffffffff 15 800] ------- [21:255 -1:255 29 0] [0x2 1 1 [17 0] [0 4]] (REQUEST)
r 0.006985627 _2_ RTR  --- 0 AOMDV 52 [0 ffffffff 15 800] ------- [21:255 -1:255 29 0] [0x2 1 1 [17 0] [0 4]] (REQUEST)
r 0.006985869 _1_ RTR  --- 0 AOMDV 52 [0 ffffffff 15 800] ------- [21:255 -1:255 29 0] [0x2 1 1 [17 0] [0 4]] (REQUEST)
s 0.007030869 _1_ MAC  --- 0 AOMDV 110 [0 ffffffff 1 800] ------- [1:255 -1:255 29 0] [0x2 1 1 [17 0] [0 4]] (REQUEST)
s 0.007084573 _15_ RTR  --- 0 AOMDV 52 [0 ffffffff 0 800] ------- [15:255 -1:255 29 0] [0x2 1 1 [17 0] [0 4]] (REQUEST)
r 0.007911424 _3_ MAC  --- 0 AOMDV 52 [0 ffffffff 1 800] ------- [1:255 -1:255 29 0] [0x2 1 1 [17 0] [0 4]] (REQUEST)
r 0.007911429 _4_ MAC  --- 0 AOMDV 52 [0 ffffffff 1 800] ------- [1:255 -1:255 29 0] [0x2 1 1 [17 0] [0 4]] (REQUEST)
r 0.007911448 _2_ MAC  --- 0 AOMDV 52 [0 ffffffff 1 800] ------- [1:255 -1:255 29 0] [0x2 1 1 [17 0] [0 4]] (REQUEST)
r 0.007911807 _6_ MAC  --- 0 AOMDV 52 [0 ffffffff 1 800] ------- [1:255 -1:255 29 0] [0x2 1 1 [17 0] [0 4]] (REQUEST)
r 0.007911892 _5_ MAC  --- 0 AOMDV 52 [0 ffffffff 1 800] ------- [1:255 -1:255 29 0] [0x2 1 1 [17 0] [0 4]] (REQUEST)
r 0.007911913 _13_ MAC  --- 0 AOMDV 52 [0 ffffffff 1 800] ------- [1:255 -1:255 29 0] [0x2 1 1 [17 0] [0 4]] (REQUEST)
r 0.007911937 _8_ MAC  --- 0 AOMDV 52 [0 ffffffff 1 800] ------- [1:255 -1:255 29 0] [0x2 1 1 [17 0] [0 4]] (REQUEST)
r 0.007912086 _9_ MAC  --- 0 AOMDV 52 [0 ffffffff 1 800] ------- [1:255 -1:255 29 0] [0x2 1 1 [17 0] [0 4]] (REQUEST)
r 0.007912136 _7_ MAC  --- 0 AOMDV 52 [0 ffffffff 1 800] ------- [1:255 -1:255 29 0] [0x2 1 1 [17 0] [0 4]] (REQUEST)
r 0.007912375 _14_ MAC  --- 0 AOMDV 52 [0 ffffffff 1 800] ------- [1:255 -1:255 29 0] [0x2 1 1 [17 0] [0 4]] (REQUEST)
r 0.007912459 _0_ MAC  --- 0 AOMDV 52 [0 ffffffff 1 800] ------- [1:255 -1:255 29 0] [0x2 1 1 [17 0] [0 4]] (REQUEST)
r 0.007912548 _10_ MAC  --- 0 AOMDV 52 [0 ffffffff 1 800] ------- [1:255 -1:255 29 0] [0x2 1 1 [17 0] [0 4]] (REQUEST)
r 0.007912573 _11_ MAC  --- 0 AOMDV 52 [0 ffffffff 1 800] ------- [1:255 -1:255 29 0] [0x2 1 1 [17 0] [0 4]] (REQUEST)
r 0.007912618 _15_ MAC  --- 0 AOMDV 52 [0 ffffffff 1 800] ------- [1:255 -1:255 29 0] [0x2 1 1 [17 0] [0 4]] (REQUEST)
r 0.007912863 _16_ MAC  --- 0 AOMDV 52 [0 ffffffff 1 800] ------- [1:255 -1:255 29 0] [0x2 1 1 [17 0] [0 4]] (REQUEST)
r 0.007912875 _17_ MAC  --- 0 AOMDV 52 [0 ffffffff 1 800] ------- [1:255 -1:255 29 0] [0x2 1 1 [17 0] [0 4]] (REQUEST)
r 0.007913016 _12_ MAC  --- 0 AOMDV 52 [0 ffffffff 1 800] ------- [1:255 -1:255 29 0] [0x2 1 1 [17 0] [0 4]] (REQUEST)
r 0.007913054 _18_ MAC  --- 0 AOMDV 52 [0 ffffffff 1 800] ------- [1:255 -1:255 29 0] [0x2 1 1 [17 0] [0 4]] (REQUEST)
r 0.007913303 _21_ MAC  --- 0 AOMDV 52 [0 ffffffff 1 800] ------- [1:255 -1:255 29 0] [0x2 1 1 [17 0] [0 4]] (REQUEST)
r 0.007913533 _19_ MAC  --- 0 AOMDV 52 [0 ffffffff 1 800] ------- [1:255 -1:255 29 0] [0x2 1 1 [17 0] [0 4]] (REQUEST)
r 0.007913824 _20_ MAC  --- 0 AOMDV 52 [0 ffffffff 1 800] ------- [1:255 -1:255 29 0] [0x2 1 1 [17 0] [0 4]] (REQUEST)
r 0.007936424 _3_ RTR  --- 0 AOMDV 52 [0 ffffffff 1 800] ------- [1:255 -1:255 29 0] [0x2 1 1 [17 0] [0 4]] (REQUEST)
r 0.007936429 _4_ RTR  --- 0 AOMDV 52 [0 ffffffff 1 800] ------- [1:255 -1:255 29 0] [0x2 1 1 [17 0] [0 4]] (REQUEST)
r 0.007936448 _2_ RTR  --- 0 AOMDV 52 [0 ffffffff 1 800] ------- [1:255 -1:255 29 0] [0x2 1 1 [17 0] [0 4]] (REQUEST)
r 0.007936807 _6_ RTR  --- 0 AOMDV 52 [0 ffffffff 1 800] ------- [1:255 -1:255 29 0] [0x2 1 1 [17 0] [0 4]] (REQUEST)
r 0.007936892 _5_ RTR  --- 0 AOMDV 52 [0 ffffffff 1 800] ------- [1:255 -1:255 29 0] [0x2 1 1 [17 0] [0 4]] (REQUEST)
r 0.007936913 _13_ RTR  --- 0 AOMDV 52 [0 ffffffff 1 800] ------- [1:255 -1:255 29 0] [0x2 1 1 [17 0] [0 4]] (REQUEST)
r 0.007936937 _8_ RTR  --- 0 AOMDV 52 [0 ffffffff 1 800] ------- [1:255 -1:255 29 0] [0x2 1 1 [17 0] [0 4]] (REQUEST)
r 0.007937086 _9_ RTR  --- 0 AOMDV 52 [0 ffffffff 1 800] ------- [1:255 -1:255 29 0] [0x2 1 1 [17 0] [0 4]] (REQUEST)
r 0.007937136 _7_ RTR  --- 0 AOMDV 52 [0 ffffffff 1 800] ------- [1:255 -1:255 29 0] [0x2 1 1 [17 0] [0 4]] (REQUEST)
r 0.007937375 _14_ RTR  --- 0 AOMDV 52 [0 ffffffff 1 800] ------- [1:255 -1:255 29 0] [0x2 1 1 [17 0] [0 4]] (REQUEST)
r 0.007937459 _0_ RTR  --- 0 AOMDV 52 [0 ffffffff 1 800] ------- [1:255 -1:255 29 0] [0x2 1 1 [17 0] [0 4]] (REQUEST)
r 0.007937548 _10_ RTR  --- 0 AOMDV 52 [0 ffffffff 1 800] ------- [1:255 -1:255 29 0] [0x2 1 1 [17 0] [0 4]] (REQUEST)
r 0.007937573 _11_ RTR  --- 0 AOMDV 52 [0 ffffffff 1 800] ------- [1:255 -1:255 29 0] [0x2 1 1 [17 0] [0 4]] (REQUEST)
r 0.007937618 _15_ RTR  --- 0 AOMDV 52 [0 ffffffff 1 800] ------- [1:255 -1:255 29 0] [0x2 1 1 [17 0] [0 4]] (REQUEST)
r 0.007937863 _16_ RTR  --- 0 AOMDV 52 [0 ffffffff 1 800] ------- [1:255 -1:255 29 0] [0x2 1 1 [17 0] [0 4]] (REQUEST)
r 0.007937875 _17_ RTR  --- 0 AOMDV 52 [0 ffffffff 1 800] ------- [1:255 -1:255 29 0] [0x2 1 1 [17 0] [0 4]] (REQUEST)
s 0.007937875 _17_ RTR  --- 0 AOMDV 52 [0 0 0 0] ------- [17:255 0:255 30 1] [0x4 0 [17 2] 10.000000] (REPLY) [1 1]
r 0.007938016 _12_ RTR  --- 0 AOMDV 52 [0 ffffffff 1 800] ------- [1:255 -1:255 29 0] [0x2 1 1 [17 0] [0 4]] (REQUEST)
r 0.007938054 _18_ RTR  --- 0 AOMDV 52 [0 ffffffff 1 800] ------- [1:255 -1:255 29 0] [0x2 1 1 [17 0] [0 4]] (REQUEST)
r 0.007938303 _21_ RTR  --- 0 AOMDV 52 [0 ffffffff 1 800] ------- [1:255 -1:255 29 0] [0x2 1 1 [17 0] [0 4]] (REQUEST)
r 0.007938533 _19_ RTR  --- 0 AOMDV 52 [0 ffffffff 1 800] ------- [1:255 -1:255 29 0] [0x2 1 1 [17 0] [0 4]] (REQUEST)
r 0.007938824 _20_ RTR  --- 0 AOMDV 52 [0 ffffffff 1 800] ------- [1:255 -1:255 29 0] [0x2 1 1 [17 0] [0 4]] (REQUEST)
s 0.007982548 _10_ MAC  --- 0 AOMDV 110 [0 ffffffff a 800] ------- [10:255 -1:255 29 0] [0x2 1 1 [17 0] [0 4]] (REQUEST)
s 0.008151438 _2_ RTR  --- 0 AOMDV 52 [0 ffffffff 0 800] ------- [2:255 -1:255 29 0] [0x2 1 1 [17 0] [0 4]] (REQUEST)
s 0.008298889 _18_ RTR  --- 0 AOMDV 52 [0 ffffffff 0 800] ------- [18:255 -1:255 29 0] [0x2 1 1 [17 0] [0 4]] (REQUEST)
s 0.008417184 _5_ RTR  --- 0 AOMDV 52 [0 ffffffff 0 800] ------- [5:255 -1:255 29 0] [0x2 1 1 [17 0] [0 4]] (REQUEST)
s 0.008481392 _8_ RTR  --- 0 AOMDV 52 [0 ffffffff 0 800] ------- [8:255 -1:255 29 0] [0x2 1 1 [17 0] [0 4]] (REQUEST)
r 0.008863045 _7_ MAC  --- 0 AOMDV 52 [0 ffffffff a 800] ------- [10:255 -1:255 29 0] [0x2 1 1 [17 0] [0 4]] (REQUEST)
r 0.008863078 _12_ MAC  --- 0 AOMDV 52 [0 ffffffff a 800] ------- [10:255 -1:255 29 0] [0x2 1 1 [17 0] [0 4]] (REQUEST)
r 0.008863209 _11_ MAC  --- 0 AOMDV 52 [0 ffffffff a 800] ------- [10:255 -1:255 29 0] [0x2 1 1 [17 0] [0 4]] (REQUEST)
r 0.008863235 _5_ MAC  --- 0 AOMDV 52 [0 ffffffff a 800] ------- [10:255 -1:255 29 0] [0x2 1 1 [17 0] [0 4]] (REQUEST)
r 0.008863393 _6_ MAC  --- 0 AOMDV 52 [0 ffffffff a 800] ------- [10:255 -1:255 29 0] [0x2 1 1 [17 0] [0 4]] (REQUEST)
r 0.008863536 _18_ MAC  --- 0 AOMDV 52 [0 ffffffff a 800] ------- [10:255 -1:255 29 0] [0x2 1 1 [17 0] [0 4]] (REQUEST)
r 0.008863653 _19_ MAC  --- 0 AOMDV 52 [0 ffffffff a 800] ------- [10:255 -1:255 29 0] [0x2 1 1 [17 0] [0 4]] (REQUEST)
r 0.008863672 _4_ MAC  --- 0 AOMDV 52 [0 ffffffff a 800] ------- [10:255 -1:255 29 0] [0x2 1 1 [17 0] [0 4]] (REQUEST)
r 0.008863675 _0_ MAC  --- 0 AOMDV 52 [0 ffffffff a 800] ------- [10:255 -1:255 29 0] [0x2 1 1 [17 0] [0 4]] (REQUEST)
r 0.008863739 _13_ MAC  --- 0 AOMDV 52 [0 ffffffff a 800] ------- [10:255 -1:255 29 0] [0x2 1 1 [17 0] [0 4]] (REQUEST)
r 0.008863932 _3_ MAC  --- 0 AOMDV 52 [0 ffffffff a 800] ------- [10:255 -1:255 29 0] [0x2 1 1 [17 0] [0 4]] (REQUEST)
r 0.008863972 _21_ MAC  --- 0 AOMDV 52 [0 ffffffff a 800] ------- [10:255 -1:255 29 0] [0x2 1 1 [17 0] [0 4]] (REQUEST)
r 0.008864079 _8_ MAC  --- 0 AOMDV 52 [0 ffffffff a 800] ------- [10:255 -1:255 29 0] [0x2 1 1 [17 0] [0 4]] (REQUEST)