n -t * -s 0  -x 513 -y 517 -Z 0 -z 70  -v circle -c black
n -t * -s 1  -x 36 -y 529 -Z 0 -z 70  -v circle -c black
n -t * -s 2  -x 143 -y 666 -Z 0 -z 70  -v circle -c black
n -t * -s 3  -x 201 -y 552 -Z 0 -z 70  -v circle -c black
n -t * -s 4  -x 147 -y 403 -Z 0 -z 70  -v circle -c black
n -t * -s 5  -x 230 -y 291 -Z 0 -z 70  -v circle -c black
n -t * -s 6  -x 295 -y 419 -Z 0 -z 70  -v circle -c black
n -t * -s 7  -x 363 -y 335 -Z 0 -z 70  -v circle -c black
n -t * -s 8  -x 334 -y 647 -Z 0 -z 70  -v circle -c black
n -t * -s 9  -x 304 -y 777 -Z 0 -z 70  -v circle -c black
n -t * -s 10  -x 412 -y 194 -Z 0 -z 70  -v circle -c black
n -t * -s 11  -x 519 -y 361 -Z 0 -z 70  -v circle -c black
n -t * -s 12  -x 569 -y 167 -Z 0 -z 70  -v circle -c black
n -t * -s 13  -x 349 -y 546 -Z 0 -z 70  -v circle -c black
n -t * -s 14  -x 466 -y 668 -Z 0 -z 70  -v circle -c black
n -t * -s 15  -x 489 -y 794 -Z 0 -z 70  -v circle -c black
n -t * -s 16  -x 606 -y 711 -Z 0 -z 70  -v circle -c black
n -t * -s 17  -x 630 -y 626 -Z 0 -z 70  -v circle -c black
n -t * -s 18  -x 666 -y 347 -Z 0 -z 70  -v circle -c black
n -t * -s 19  -x 741 -y 152 -Z 0 -z 70  -v circle -c black
n -t * -s 20  -x 882 -y 264 -Z 0 -z 70  -v circle -c black
n -t * -s 21  -x 761 -y 441 -Z 0 -z 70  -v circle -c black
V -t * -v 1.0a5 -a 0
W -t * -x 1000 -y 840
A -t * -n 1 -p 0 -o 0x7fffffff -c 30 -a 1
A -t * -h 1 -m 1073741823 -s 0
n -t 0.000000 -s 1 -x 36.000000 -y 529.000000 -U 9.548368 -V 2.971308 -T 94.571137
n -t 0.000000 -s 2 -x 143.000000 -y 666.000000 -U 5.299557 -V -14.032630 -T 40.192039
n -t 0.000000 -s 3 -x 201.000000 -y 552.000000 -U 14.375247 -V -26.331583 -T 14.469316
n -t 0.000000 -s 4 -x 147.000000 -y 403.000000 -U 12.265942 -V -15.797046 -T 10.761505
n -t 0.000000 -s 5 -x 230.000000 -y 291.000000 -U -0.000000 -V -0.000000 -T 0.000000
n -t 0.000000 -s 6 -x 295.000000 -y 419.000000 -U 8.012802 -V -5.982892 -T 65.520150
n -t 0.000000 -s 7 -x 363.000000 -y 335.000000 -U 0.000000 -V -0.000000 -T 0.000000
n -t 0.000000 -s 8 -x 334.000000 -y 647.000000 -U -15.427466 -V -12.727659 -T 10.371114
n -t 0.000000 -s 9 -x 304.000000 -y 777.000000 -U 15.006604 -V -25.976948 -T 19.324826
n -t 0.000000 -s 10 -x 412.000000 -y 194.000000 -U 3.048856 -V 3.962887 -T 159.732026
n -t 0.000000 -s 11 -x 519.000000 -y 361.000000 -U -20.415466 -V 28.429013 -T 15.723374
n -t 0.000000 -s 12 -x 569.000000 -y 167.000000 -U -9.111560 -V 23.280453 -T 23.925652
n -t 0.000000 -s 13 -x 349.000000 -y 546.000000 -U -14.999882 -V 0.059523 -T 16.800132
n -t 0.000000 -s 14 -x 466.000000 -y 668.000000 -U -21.756421 -V -12.314955 -T 14.616374
n -t 0.000000 -s 15 -x 489.000000 -y 794.000000 -U 2.327917 -V -4.425020 -T 151.637726
n -t 0.000000 -s 16 -x 606.000000 -y 711.000000 -U -5.542399 -V -24.377896 -T 23.094692
n -t 0.000000 -s 17 -x 630.000000 -y 626.000000 -U -0.000000 -V -0.000000 -T 0.000000
n -t 0.000000 -s 18 -x 666.000000 -y 347.000000 -U -20.894261 -V 21.527421 -T 20.531953
n -t 0.000000 -s 19 -x 741.000000 -y 152.000000 -U -14.267096 -V 14.016062 -T 47.802301
n -t 0.000000 -s 20 -x 882.000000 -y 264.000000 -U 0.000000 -V -0.000000 -T 0.000000
n -t 0.000000 -s 21 -x 761.000000 -y 441.000000 -U -22.664552 -V 10.550740 -T 23.031561
n -t 0 -s 0 -S DLABEL -l "node1" -L ""
n -t 0 -s 1 -S DLABEL -l "node2" -L ""
n -t 0 -s 2 -S DLABEL -l "node3" -L ""
n -t 0 -s 3 -S DLABEL -l "node4" -L ""
n -t 0 -s 4 -S DLABEL -l "node5" -L ""
n -t 0 -s 5 -S DLABEL -l "node6" -L ""
n -t 0 -s 6 -S DLABEL -l "node7" -L ""
n -t 0 -s 7 -S DLABEL -l "node8" -L ""
n -t 0 -s 8 -S DLABEL -l "node9" -L ""
n -t 0 -s 9 -S DLABEL -l "node10" -L ""
n -t 0 -s 10 -S DLABEL -l "node11" -L ""
n -t 0 -s 11 -S DLABEL -l "node12" -L ""
n -t 0 -s 12 -S DLABEL -l "node13" -L ""
n -t 0 -s 13 -S DLABEL -l "node14" -L ""
n -t 0 -s 14 -S DLABEL -l "node15" -L ""
n -t 0 -s 15 -S DLABEL -l "node16" -L ""
n -t 0 -s 16 -S DLABEL -l "node17" -L ""
n -t 0 -s 17 -S DLABEL -l "node18" -L ""
n -t 0 -s 18 -S DLABEL -l "node19" -L ""
n -t 0 -s 19 -S DLABEL -l "node20" -L ""
n -t 0 -s 20 -S DLABEL -l "node21" -L ""
n -t 0 -s 21 -S DLABEL -l "node22" -L ""
n -t 0 -s 0 -S COLOR -c green -o green -i green -I green
n -t 0 -s 1 -S COLOR -c green -o green -i green -I green
n -t 0 -s 2 -S COLOR -c green -o green -i green -I green
n -t 0 -s 3 -S COLOR -c green -o green -i green -I green
n -t 0 -s 4 -S COLOR -c green -o green -i green -I green
n -t 0 -s 5 -S COLOR -c green -o green -i green -I green
n -t 0 -s 6 -S COLOR -c green -o green -i green -I green
n -t 0 -s 7 -S COLOR -c green -o green -i green -I green
n -t 0 -s 8 -S COLOR -c yellow -o yellow -i yellow -I yellow
n -t 0 -s 9 -S COLOR -c yellow -o yellow -i yellow -I yellow
n -t 0 -s 10 -S COLOR -c yellow -o yellow -i yellow -I yellow
n -t 0 -s 11 -S COLOR -c pink -o pink -i pink -I pink
n -t 0 -s 12 -S COLOR -c pink -o pink -i pink -I pink
n -t 0 -s 13 -S COLOR -c pink -o pink -i pink -I pink
n -t 0 -s 14 -S COLOR -c pink -o pink -i pink -I pink
n -t 0 -s 15 -S COLOR -c pink -o pink -i pink -I pink
n -t 0 -s 16 -S COLOR -c orange -o orange -i orange -I orange
n -t 0 -s 17 -S COLOR -c orange -o orange -i orange -I orange
n -t 0 -s 18 -S COLOR -c orange -o orange -i orange -I orange
n -t 0 -s 19 -S COLOR -c orange -o orange -i orange -I orange
n -t 0 -s 20 -S COLOR -c orange -o orange -i orange -I orange
n -t 0 -s 21 -S COLOR -c orange -o orange -i orange -I orange
v -t 0 set_rate_ext 0.014999999999999999 1
+ -t 0.000000000 -s 0 -d -1 -p cbr -e 1000 -c 2 -a 0 -i 0 -k AGT 
- -t 0.000000000 -s 0 -d -1 -p cbr -e 1000 -c 2 -a 0 -i 0 -k AGT
h -t 0.000000000 -s 0 -d -1 -p cbr -e 1000 -c 2 -a 0 -i 0 -k AGT
v -t 0 -e sim_annotation 0 1 MOBILE NODE MOVEMENTS
+ -t 0.000000000 -s 0 -d -1 -p AOMDV -e 52 -c 2 -a 0 -i 0 -k RTR 
- -t 0.000000000 -s 0 -d -1 -p AOMDV -e 52 -c 2 -a 0 -i 0 -k RTR
h -t 0.000000000 -s 0 -d -1 -p AOMDV -e 52 -c 2 -a 0 -i 0 -k RTR
+ -t 0.000315000 -s 0 -d -1 -p AOMDV -e 110 -c 2 -a 0 -i 0 -k MAC 
- -t 0.000315000 -s 0 -d -1 -p AOMDV -e 110 -c 2 -a 0 -i 0 -k MAC
h -t 0.000315000 -s 0 -d -1 -p AOMDV -e 110 -c 2 -a 0 -i 0 -k MAC
r -t 0.001195520 -s 11 -d -1 -p AOMDV -e 52 -c 2 -a 0 -i 0 -k MAC
r -t 0.001195527 -s 14 -d -1 -p AOMDV -e 52 -c 2 -a 0 -i 0 -k MAC
r -t 0.001195533 -s 17 -d -1 -p AOMDV -e 52 -c 2 -a 0 -i 0 -k MAC
r -t 0.001195555 -s 13 -d -1 -p AOMDV -e 52 -c 2 -a 0 -i 0 -k MAC
r -t 0.001195717 -s 16 -d -1 -p AOMDV -e 52 -c 2 -a 0 -i 0 -k MAC
r -t 0.001195737 -s 8 -d -1 -p AOMDV -e 52 -c 2 -a 0 -i 0 -k MAC
r -t 0.001195762 -s 18 -d -1 -p AOMDV -e 52 -c 2 -a 0 -i 0 -k MAC
r -t 0.001195786 -s 7 -d -1 -p AOMDV -e 52 -c 2 -a 0 -i 0 -k MAC
r -t 0.001195797 -s 6 -d -1 -p AOMDV -e 52 -c 2 -a 0 -i 0 -k MAC
r -t 0.001195865 -s 21 -d -1 -p AOMDV -e 52 -c 2 -a 0 -i 0 -k MAC
r -t 0.001195927 -s 15 -d -1 -p AOMDV -e 52 -c 2 -a 0 -i 0 -k MAC
r -t 0.001196047 -s 3 -d -1 -p AOMDV -e 52 -c 2 -a 0 -i 0 -k MAC
r -t 0.001196112 -s 9 -d -1 -p AOMDV -e 52 -c 2 -a 0 -i 0 -k MAC
r -t 0.001196128 -s 10 -d -1 -p AOMDV -e 52 -c 2 -a 0 -i 0 -k MAC
r -t 0.001196181 -s 12 -d -1 -p AOMDV -e 52 -c 2 -a 0 -i 0 -k MAC
r -t 0.001196207 -s 5 -d -1 -p AOMDV -e 52 -c 2 -a 0 -i 0 -k MAC
r -t 0.001196278 -s 4 -d -1 -p AOMDV -e 52 -c 2 -a 0 -i 0 -k MAC
r -t 0.001196330 -s 2 -d -1 -p AOMDV -e 52 -c 2 -a 0 -i 0 -k MAC
r -t 0.001196435 -s 19 -d -1 -p AOMDV -e 52 -c 2 -a 0 -i 0 -k MAC
r -t 0.001196491 -s 20 -d -1 -p AOMDV -e 52 -c 2 -a 0 -i 0 -k MAC
r -t 0.001196590 -s 1 -d -1 -p AOMDV -e 52 -c 2 -a 0 -i 0 -k MAC
r -t 0.001220520 -s 11 -d -1 -p AOMDV -e 52 -c 2 -a 0 -i 0 -k RTR
r -t 0.001220527 -s 14 -d -1 -p AOMDV -e 52 -c 2 -a 0 -i 0 -k RTR
r -t 0.001220533 -s 17 -d -1 -p AOMDV -e 52 -c 2 -a 0 -i 0 -k RTR
+ -t 0.001220533 -s 17 -d 0 -p AOMDV -e 52 -c 2 -a 0 -i 0 -k RTR 
- -t 0.001220533 -s 17 -d 0 -p AOMDV -e 52 -c 2 -a 0 -i 0 -k RTR
h -t 0.001220533 -s 17 -d 0 -p AOMDV -e 52 -c 2 -a 0 -i 0 -k RTR
r -t 0.001220555 -s 13 -d -1 -p AOMDV -e 52 -c 2 -a 0 -i 0 -k RTR
r -t 0.001220717 -s 16 -d -1 -p AOMDV -e 52 -c 2 -a 0 -i 0 -k RTR
r -t 0.001220737 -s 8 -d -1 -p AOMDV -e 52 -c 2 -a 0 -i 0 -k RTR
r -t 0.001220762 -s 18 -d -1 -p AOMDV -e 52 -c 2 -a 0 -i 0 -k RTR
r -t 0.001220786 -s 7 -d -1 -p AOMDV -e 52 -c 2 -a 0 -i 0 -k RTR
r -t 0.001220797 -s 6 -d -1 -p AOMDV -e 52 -c 2 -a 0 -i 0 -k RTR
r -t 0.001220865 -s 21 -d -1 -p AOMDV -e 52 -c 2 -a 0 -i 0 -k RTR
r -t 0.001220927 -s 15 -d -1 -p AOMDV -e 52 -c 2 -a 0 -i 0 -k RTR
r -t 0.001221047 -s 3 -d -1 -p AOMDV -e 52 -c 2 -a 0 -i 0 -k RTR
r -t 0.001221112 -s 9 -d -1 -p AOMDV -e 52 -c 2 -a 0 -i 0 -k RTR
r -t 0.001221128 -s 10 -d -1 -p AOMDV -e 52 -c 2 -a 0 -i 0 -k RTR
r -t 0.001221181 -s 12 -d -1 -p AOMDV -e 52 -c 2 -a 0 -i 0 -k RTR
r -t 0.001221207 -s 5 -d -1 -p AOMDV -e 52 -c 2 -a 0 -i 0 -k RTR
r -t 0.001221278 -s 4 -d -1 -p AOMDV -e 52 -c 2 -a 0 -i 0 -k RTR
r -t 0.001221330 -s 2 -d -1 -p AOMDV -e 52 -c 2 -a 0 -i 0 -k RTR
r -t 0.001221435 -s 19 -d -1 -p AOMDV -e 52 -c 2 -a 0 -i 0 -k RTR
r -t 0.001221491 -s 20 -d -1 -p AOMDV -e 52 -c 2 -a 0 -i 0 -k RTR
r -t 0.001221590 -s 1 -d -1 -p AOMDV -e 52 -c 2 -a 0 -i 0 -k RTR
+ -t 0.001278810 -s 13 -d -1 -p AOMDV -e 52 -c 2 -a 0 -i 0 -k RTR 
- -t 0.001278810 -s 13 -d -1 -p AOMDV -e 52 -c 2 -a 0 -i 0 -k RTR
h -t 0.001278810 -s 13 -d -1 -p AOMDV -e 52 -c 2 -a 0 -i 0 -k RTR
+ -t 0.001453810 -s 13 -d -1 -p AOMDV -e 110 -c 2 -a 0 -i 0 -k MAC 
- -t 0.001453810 -s 13 -d -1 -p AOMDV -e 110 -c 2 -a 0 -i 0 -k MAC
h -t 0.001453810 -s 13 -d -1 -p AOMDV -e 110 -c 2 -a 0 -i 0 -k MAC
r -t 0.002334150 -s 8 -d -1 -p AOMDV -e 52 -c 2 -a 0 -i 0 -k MAC
r -t 0.002334270 -s 6 -d -1 -p AOMDV -e 52 -c 2 -a 0 -i 0 -k MAC
r -t 0.002334303 -s 3 -d -1 -p AOMDV -e 52 -c 2 -a 0 -i 0 -k MAC
r -t 0.002334365 -s 0 -d -1 -p AOMDV -e 52 -c 2 -a 0 -i 0 -k MAC
r -t 0.002334373 -s 14 -d -1 -p AOMDV -e 52 -c 2 -a 0 -i 0 -k MAC
r -t 0.002334515 -s 7 -d -1 -p AOMDV -e 52 -c 2 -a 0 -i 0 -k MAC
r -t 0.002334594 -s 9 -d -1 -p AOMDV -e 52 -c 2 -a 0 -i 0 -k MAC
r -t 0.002334604 -s 2 -d -1 -p AOMDV -e 52 -c 2 -a 0 -i 0 -k MAC
r -t 0.002334635 -s 4 -d -1 -p AOMDV -e 52 -c 2 -a 0 -i 0 -k MAC
r -t 0.002334647 -s 11 -d -1 -p AOMDV -e 52 -c 2 -a 0 -i 0 -k MAC
r -t 0.002334748 -s 5 -d -1 -p AOMDV -e 52 -c 2 -a 0 -i 0 -k MAC
r -t 0.002334759 -s 15 -d -1 -p AOMDV -e 52 -c 2 -a 0 -i 0 -k MAC
r -t 0.002334784 -s 17 -d -1 -p AOMDV -e 52 -c 2 -a 0 -i 0 -k MAC
r -t 0.002334828 -s 16 -d -1 -p AOMDV -e 52 -c 2 -a 0 -i 0 -k MAC
r -t 0.002334854 -s 1 -d -1 -p AOMDV -e 52 -c 2 -a 0 -i 0 -k MAC
r -t 0.002335002 -s 10 -d -1 -p AOMDV -e 52 -c 2 -a 0 -i 0 -k MAC
r -t 0.002335057 -s 18 -d -1 -p AOMDV -e 52 -c 2 -a 0 -i 0 -k MAC
r -t 0.002335227 -s 21 -d -1 -p AOMDV -e 52 -c 2 -a 0 -i 0 -k MAC
r -t 0.002335270 -s 12 -d -1 -p AOMDV -e 52 -c 2 -a 0 -i 0 -k MAC
r -t 0.002335662 -s 19 -d -1 -p AOMDV -e 52 -c 2 -a 0 -i 0 -k MAC
r -t 0.002335820 -s 20 -d -1 -p AOMDV -e 52 -c 2 -a 0 -i 0 -k MAC
r -t 0.002359150 -s 8 -d -1 -p AOMDV -e 52 -c 2 -a 0 -i 0 -k RTR
r -t 0.002359270 -s 6 -d -1 -p AOMDV -e 52 -c 2 -a 0 -i 0 -k RTR
r -t 0.002359303 -s 3 -d -1 -p AOMDV -e 52 -c 2 -a 0 -i 0 -k RTR
r -t 0.002359365 -s 0 -d -1 -p AOMDV -e 52 -c 2 -a 0 -i 0 -k RTR
r -t 0.002359373 -s 14 -d -1 -p AOMDV -e 52 -c 2 -a 0 -i 0 -k RTR
r -t 0.002359515 -s 7 -d -1 -p AOMDV -e 52 -c 2 -a 0 -i 0 -k RTR
r -t 0.002359594 -s 9 -d -1 -p AOMDV -e 52 -c 2 -a 0 -i 0 -k RTR
r -t 0.002359604 -s 2 -d -1 -p AOMDV -e 52 -c 2 -a 0 -i 0 -k RTR
r -t 0.002359635 -s 4 -d -1 -p AOMDV -e 52 -c 2 -a 0 -i 0 -k RTR
r -t 0.002359647 -s 11 -d -1 -p AOMDV -e 52 -c 2 -a 0 -i 0 -k RTR
r -t 0.002359748 -s 5 -d -1 -p AOMDV -e 52 -c 2 -a 0 -i 0 -k RTR
r -t 0.002359759 -s 15 -d -1 -p AOMDV -e 52 -c 2 -a 0 -i 0 -k RTR
r -t 0.002359784 -s 17 -d -1 -p AOMDV -e 52 -c 2 -a 0 -i 0 -k RTR
+ -t 0.002359784 -s 17 -d 13 -p AOMDV -e 52 -c 2 -a 0 -i 0 -k RTR 
- -t 0.002359784 -s 17 -d 13 -p AOMDV -e 52 -c 2 -a 0 -i 0 -k RTR
h -t 0.002359784 -s 17 -d 13 -p AOMDV -e 52 -c 2 -a 0 -i 0 -k RTR
r -t 0.002359828 -s 16 -d -1 -p AOMDV -e 52 -c 2 -a 0 -i 0 -k RTR
r -t 0.002359854 -s 1 -d -1 -p AOMDV -e 52 -c 2 -a 0 -i 0 -k RTR
r -t 0.002360002 -s 10 -d -1 -p AOMDV -e 52 -c 2 -a 0 -i 0 -k RTR
r -t 0.002360057 -s 18 -d -1 -p AOMDV -e 52 -c 2 -a 0 -i 0 -k RTR
r -t 0.002360227 -s 21 -d -1 -p AOMDV -e 52 -c 2 -a 0 -i 0 -k RTR
r -t 0.002360270 -s 12 -d -1 -p AOMDV -e 52 -c 2 -a 0 -i 0 -k RTR
r -t 0.002360662 -s 19 -d -1 -p AOMDV -e 52 -c 2 -a 0 -i 0 -k RTR
r -t 0.002360820 -s 20 -d -1 -p AOMDV -e 52 -c 2 -a 0 -i 0 -k RTR
+ -t 0.002724784 -s 17 -d -1 -p ARP -e 86 -c 2 -a 0 -i 0 -k MAC 
- -t 0.002724784 -s 17 -d -1 -p ARP -e 86 -c 2 -a 0 -i 0 -k MAC
h -t 0.002724784 -s 17 -d -1 -p ARP -e 86 -c 2 -a 0 -i 0 -k MAC
r -t 0.003413078 -s 16 -d -1 -p ARP -e 28 -c 2 -a 0 -i 0 -k MAC
r -t 0.003413317 -s 0 -d -1 -p ARP -e 28 -c 2 -a 0 -i 0 -k MAC
r -t 0.003413348 -s 14 -d -1 -p ARP -e 28 -c 2 -a 0 -i 0 -k MAC
r -t 0.003413515 -s 15 -d -1 -p ARP -e 28 -c 2 -a 0 -i 0 -k MAC
r -t 0.003413539 -s 21 -d -1 -p ARP -e 28 -c 2 -a 0 -i 0 -k MAC
r -t 0.003413721 -s 18 -d -1 -p ARP -e 28 -c 2 -a 0 -i 0 -k MAC
r -t 0.003413741 -s 11 -d -1 -p ARP -e 28 -c 2 -a 0 -i 0 -k MAC
r -t 0.003413758 -s 13 -d -1 -p ARP -e 28 -c 2 -a 0 -i 0 -k MAC
r -t 0.003413773 -s 8 -d -1 -p ARP -e 28 -c 2 -a 0 -i 0 -k MAC
r -t 0.003413981 -s 9 -d -1 -p ARP -e 28 -c 2 -a 0 -i 0 -k MAC
r -t 0.003414096 -s 6 -d -1 -p ARP -e 28 -c 2 -a 0 -i 0 -k MAC
r -t 0.003414100 -s 7 -d -1 -p ARP -e 28 -c 2 -a 0 -i 0 -k MAC
r -t 0.003414235 -s 3 -d -1 -p ARP -e 28 -c 2 -a 0 -i 0 -k MAC
r -t 0.003414254 -s 20 -d -1 -p ARP -e 28 -c 2 -a 0 -i 0 -k MAC
r -t 0.003414327 -s 12 -d -1 -p ARP -e 28 -c 2 -a 0 -i 0 -k MAC
r -t 0.003414397 -s 10 -d -1 -p ARP -e 28 -c 2 -a 0 -i 0 -k MAC
r -t 0.003414406 -s 19 -d -1 -p ARP -e 28 -c 2 -a 0 -i 0 -k MAC
r -t 0.003414412 -s 2 -d -1 -p ARP -e 28 -c 2 -a 0 -i 0 -k MAC
r -t 0.003414523 -s 5 -d -1 -p ARP -e 28 -c 2 -a 0 -i 0 -k MAC
r -t 0.003414557 -s 4 -d -1 -p ARP -e 28 -c 2 -a 0 -i 0 -k MAC
r -t 0.003414790 -s 1 -d -1 -p ARP -e 28 -c 2 -a 0 -i 0 -k MAC
+ -t 0.003562784 -s 17 -d -1 -p ARP -e 86 -c 2 -a 0 -i 0 -k MAC 
- -t 0.003562784 -s 17 -d -1 -p ARP -e 86 -c 2 -a 0 -i 0 -k MAC
h -t 0.003562784 -s 17 -d -1 -p ARP -e 86 -c 2 -a 0 -i 0 -k MAC
+ -t 0.004056098 -s 16 -d -1 -p AOMDV -e 52 -c 2 -a 0 -i 0 -k RTR 
- -t 0.004056098 -s 16 -d -1 -p AOMDV -e 52 -c 2 -a 0 -i 0 -k RTR
h -t 0.004056098 -s 16 -d -1 -p AOMDV -e 52 -c 2 -a 0 -i 0 -k RTR
r -t 0.004251078 -s 16 -d -1 -p ARP -e 28 -c 2 -a 0 -i 0 -k MAC
r -t 0.004251317 -s 0 -d -1 -p ARP -e 28 -c 2 -a 0 -i 0 -k MAC
r -t 0.004251348 -s 14 -d -1 -p ARP -e 28 -c 2 -a 0 -i 0 -k MAC
r -t 0.004251515 -s 15 -d -1 -p ARP -e 28 -c 2 -a 0 -i 0 -k MAC
r -t 0.004251539 -s 21 -d -1 -p ARP -e 28 -c 2 -a 0 -i 0 -k MAC
r -t 0.004251721 -s 18 -d -1 -p ARP -e 28 -c 2 -a 0 -i 0 -k MAC
r -t 0.004251741 -s 11 -d -1 -p ARP -e 28 -c 2 -a 0 -i 0 -k MAC
r -t 0.004251758 -s 13 -d -1 -p ARP -e 28 -c 2 -a 0 -i 0 -k MAC
r -t 0.004251773 -s 8 -d -1 -p ARP -e 28 -c 2 -a 0 -i 0 -k MAC
r -t 0.004251981 -s 9 -d -1 -p ARP -e 28 -c 2 -a 0 -i 0 -k MAC
r -t 0.004252096 -s 6 -d -1 -p ARP -e 28 -c 2 -a 0 -i 0 -k MAC
r -t 0.004252100 -s 7 -d -1 -p ARP -e 28 -c 2 -a 0 -i 0 -k MAC
r -t 0.004252235 -s 3 -d -1 -p ARP -e 28 -c 2 -a 0 -i 0 -k MAC
r -t 0.004252254 -s 20 -d -1 -p ARP -e 28 -c 2 -a 0 -i 0 -k MAC
r -t 0.004252327 -s 12 -d -1 -p ARP -e 28 -c 2 -a 0 -i 0 -k MAC
r -t 0.004252397 -s 10 -d -1 -p ARP -e 28 -c 2 -a 0 -i 0 -k MAC
r -t 0.004252406 -s 19 -d -1 -p ARP -e 28 -c 2 -a 0 -i 0 -k MAC
r -t 0.004252412 -s 2 -d -1 -p ARP -e 28 -c 2 -a 0 -i 0 -k MAC
r -t 0.004252523 -s 5 -d -1 -p ARP -e 28 -c 2 -a 0 -i 0 -k MAC
r -t 0.004252557 -s 4 -d -1 -p ARP -e 28 -c 2 -a 0 -i 0 -k MAC
r -t 0.004252790 -s 1 -d -1 -p ARP -e 28 -c 2 -a 0 -i 0 -k MAC
+ -t 0.004346758 -s 13 -d -1 -p RTS -e 44 -c 2 -a 0 -i 0 -k MAC 
- -t 0.004346758 -s 13 -d -1 -p RTS -e 44 -c 2 -a 0 -i 0 -k MAC
h -t 0.004346758 -s 13 -d -1 -p RTS -e 44 -c 2 -a 0 -i 0 -k MAC
r -t 0.004699732 -s 17 -d -1 -p RTS -e 44 -c 2 -a 0 -i 0 -k MAC
+ -t 0.004709732 -s 17 -d -1 -p CTS -e 38 -c 2 -a 0 -i 0 -k MAC 
- -t 0.004709732 -s 17 -d -1 -p CTS -e 38 -c 2 -a 0 -i 0 -k MAC
h -t 0.004709732 -s 17 -d -1 -p CTS -e 38 -c 2 -a 0 -i 0 -k MAC
+ -t 0.004974730 -s 11 -d -1 -p AOMDV -e 52 -c 2 -a 0 -i 0 -k RTR 
- -t 0.004974730 -s 11 -d -1 -p AOMDV -e 52 -c 2 -a 0 -i 0 -k RTR
h -t 0.004974730 -s 11 -d -1 -p AOMDV -e 52 -c 2 -a 0 -i 0 -k RTR
r -t 0.005014706 -s 13 -d -1 -p CTS -e 38 -c 2 -a 0 -i 0 -k MAC
+ -t 0.005024706 -s 13 -d -1 -p ARP -e 86 -c 2 -a 0 -i 0 -k MAC 
- -t 0.005024706 -s 13 -d -1 -p ARP -e 86 -c 2 -a 0 -i 0 -k MAC
h -t 0.005024706 -s 13 -d -1 -p ARP -e 86 -c 2 -a 0 -i 0 -k MAC
+ -t 0.005189754 -s 21 -d -1 -p AOMDV -e 52 -c 2 -a 0 -i 0 -k RTR 
- -t 0.005189754 -s 21 -d -1 -p AOMDV -e 52 -c 2 -a 0 -i 0 -k RTR
h -t 0.005189754 -s 21 -d -1 -p AOMDV -e 52 -c 2 -a 0 -i 0 -k RTR
+ -t 0.005545172 -s 6 -d -1 -p AOMDV -e 52 -c 2 -a 0 -i 0 -k RTR 
- -t 0.005545172 -s 6 -d -1 -p AOMDV -e 52 -c 2 -a 0 -i 0 -k RTR
h -t 0.005545172 -s 6 -d -1 -p AOMDV -e 52 -c 2 -a 0 -i 0 -k RTR
+ -t 0.005569018 -s 1 -d -1 -p AOMDV -e 52 -c 2 -a 0 -i 0 -k RTR 
- -t 0.005569018 -s 1 -d -1 -p AOMDV -e 52 -c 2 -a 0 -i 0 -k RTR
h -t 0.005569018 -s 1 -d -1 -p AOMDV -e 52 -c 2 -a 0 -i 0 -k RTR
r -t 0.005713680 -s 17 -d -1 -p ARP -e 28 -c 2 -a 0 -i 0 -k MAC
+ -t 0.005723680 -s 17 -d -1 -p ACK -e 38 -c 2 -a 0 -i 0 -k MAC 
- -t 0.005723680 -s 17 -d -1 -p ACK -e 38 -c 2 -a 0 -i 0 -k MAC
h -t 0.005723680 -s 17 -d -1 -p ACK -e 38 -c 2 -a 0 -i 0 -k MAC
+ -t 0.005822518 -s 10 -d -1 -p AOMDV -e 52 -c 2 -a 0 -i 0 -k RTR 
- -t 0.005822518 -s 10 -d -1 -p AOMDV -e 52 -c 2 -a 0 -i 0 -k RTR
h -t 0.005822518 -s 10 -d -1 -p AOMDV -e 52 -c 2 -a 0 -i 0 -k RTR
r -t 0.006028654 -s 13 -d -1 -p ACK -e 38 -c 2 -a 0 -i 0 -k MAC
+ -t 0.006078435 -s 21 -d -1 -p AOMDV -e 110 -c 2 -a 0 -i 0 -k MAC 
- -t 0.006078435 -s 21 -d -1 -p AOMDV -e 110 -c 2 -a 0 -i 0 -k MAC
h -t 0.006078435 -s 21 -d -1 -p AOMDV -e 110 -c 2 -a 0 -i 0 -k MAC
+ -t 0.006850697 -s 14 -d -1 -p AOMDV -e 52 -c 2 -a 0 -i 0 -k RTR 
- -t 0.006850697 -s 14 -d -1 -p AOMDV -e 52 -c 2 -a 0 -i 0 -k RTR
h -t 0.006850697 -s 14 -d -1 -p AOMDV -e 52 -c 2 -a 0 -i 0 -k RTR
r -t 0.006958881 -s 18 -d -1 -p AOMDV -e 52 -c 2 -a 0 -i 0 -k MAC
r -t 0.006959150 -s 20 -d -1 -p AOMDV -e 52 -c 2 -a 0 -i 0 -k MAC
r -t 0.006959190 -s 17 -d -1 -p AOMDV -e 52 -c 2 -a 0 -i 0 -k MAC
r -t 0.006959285 -s 11 -d -1 -p AOMDV -e 52 -c 2 -a 0 -i 0 -k MAC
r -t 0.006959299 -s 0 -d -1 -p AOMDV -e 52 -c 2 -a 0 -i 0 -k MAC
r -t 0.006959401 -s 19 -d -1 -p AOMDV -e 52 -c 2 -a 0 -i 0 -k MAC
r -t 0.006959472 -s 16 -d -1 -p AOMDV -e 52 -c 2 -a 0 -i 0 -k MAC
r -t 0.006959550 -s 12 -d -1 -p AOMDV -e 52 -c 2 -a 0 -i 0 -k MAC
r -t 0.006959676 -s 14 -d -1 -p AOMDV -e 52 -c 2 -a 0 -i 0 -k MAC
r -t 0.006959808 -s 7 -d -1 -p AOMDV -e 52 -c 2 -a 0 -i 0 -k MAC
r -t 0.006959852 -s 13 -d -1 -p AOMDV -e 52 -c 2 -a 0 -i 0 -k MAC
r -t 0.006959860 -s 10 -d -1 -p AOMDV -e 52 -c 2 -a 0 -i 0 -k MAC
r -t 0.006959920 -s 15 -d -1 -p AOMDV -e 52 -c 2 -a 0 -i 0 -k MAC
r -t 0.006959990 -s 6 -d -1 -p AOMDV -e 52 -c 2 -a 0 -i 0 -k MAC
r -t 0.006960015 -s 8 -d -1 -p AOMDV -e 52 -c 2 -a 0 -i 0 -k MAC
r -t 0.006960274 -s 5 -d -1 -p AOMDV -e 52 -c 2 -a 0 -i 0 -k MAC
r -t 0.006960325 -s 9 -d -1 -p AOMDV -e 52 -c 2 -a 0 -i 0 -k MAC
r -t 0.006960337 -s 3 -d -1 -p AOMDV -e 52 -c 2 -a 0 -i 0 -k MAC
r -t 0.006960485 -s 4 -d -1 -p AOMDV -e 52 -c 2 -a 0 -i 0 -k MAC
r -t 0.006960627 -s 2 -d -1 -p AOMDV -e 52 -c 2 -a 0 -i 0 -k MAC
r -t 0.006960869 -s 1 -d -1 -p AOMDV -e 52 -c 2 -a 0 -i 0 -k MAC
r -t 0.006983881 -s 18 -d -1 -p AOMDV -e 52 -c 2 -a 0 -i 0 -k RTR
r -t 0.006984150 -s 20 -d -1 -p AOMDV -e 52 -c 2 -a 0 -i 0 -k RTR
r -t 0.006984190 -s 17 -d -1 -p AOMDV -e 52 -c 2 -a 0 -i 0 -k RTR
+ -t 0.006984190 -s 17 -d 21 -p AOMDV -e 52 -c 2 -a 0 -i 0 -k RTR 
- -t 0.006984190 -s 17 -d 21 -p AOMDV -e 52 -c 2 -a 0 -i 0 -k RTR
h -t 0.006984190 -s 17 -d 21 -p AOMDV -e 52 -c 2 -a 0 -i 0 -k RTR
r -t 0.006984285 -s 11 -d -1 -p AOMDV -e 52 -c 2 -a 0 -i 0 -k RTR
r -t 0.006984299 -s 0 -d -1 -p AOMDV -e 52 -c 2 -a 0 -i 0 -k RTR
r -t 0.006984401 -s 19 -d -1 -p AOMDV -e 52 -c 2 -a 0 -i 0 -k RTR
r -t 0.006984472 -s 16 -d -1 -p AOMDV -e 52 -c 2 -a 0 -i 0 -k RTR
r -t 0.006984550 -s 12 -d -1 -p AOMDV -e 52 -c 2 -a 0 -i 0 -k RTR
r -t 0.006984676 -s 14 -d -1 -p AOMDV -e 52 -c 2 -a 0 -i 0 -k RTR
r -t 0.006984808 -s 7 -d -1 -p AOMDV -e 52 -c 2 -a 0 -i 0 -k RTR
r -t 0.006984852 -s 13 -d -1 -p AOMDV -e 52 -c 2 -a 0 -i 0 -k RTR
r -t 0.006984860 -s 10 -d -1 -p AOMDV -e 52 -c 2 -a 0 -i 0 -k RTR
r -t 0.006984920 -s 15 -d -1 -p AOMDV -e 52 -c 2 -a 0 -i 0 -k RTR
r -t 0.006984990 -s 6 -d -1 -p AOMDV -e 52 -c 2 -a 0 -i 0 -k RTR
r -t 0.006985015 -s 8 -d -1 -p AOMDV -e 52 -c 2 -a 0 -i 0 -k RTR
r -t 0.006985274 -s 5 -d -1 -p AOMDV -e 52 -c 2 -a 0 -i 0 -k RTR
r -t 0.006985325 -s 9 -d -1 -p AOMDV -e 52 -c 2 -a 0 -i 0 -k RTR
r -t 0.006985337 -s 3 -d -1 -p AOMDV -e 52 -c 2 -a 0 -i 0 -k RTR
r -t 0.006985485 -s 4 -d -1 -p AOMDV -e 52 -c 2 -a 0 -i 0 -k RTR
r -t 0.006985627 -s 2 -d -1 -p AOMDV -e 52 -c 2 -a 0 -i 0 -k RTR
r -t 0.006985869 -s 1 -d -1 -p AOMDV -e 52 -c 2 -a 0 -i 0 -k RTR
+ -t 0.007030869 -s 1 -d -1 -p AOMDV -e 110 -c 2 -a 0 -i 0 -k MAC 
- -t 0.007030869 -s 1 -d -1 -p AOMDV -e 110 -c 2 -a 0 -i 0 -k MAC
h -t 0.007030869 -s 1 -d -1 -p AOMDV -e 110 -c 2 -a 0 -i 0 -k MAC
+ -t 0.007084573 -s 15 -d -1 -p AOMDV -e 52 -c 2 -a 0 -i 0 -k RTR 
- -t 0.007084573 -s 15 -d -1 -p AOMDV -e 52 -c 2 -a 0 -i 0 -k RTR
h -t 0.007084573 -s 15 -d -1 -p AOMDV -e 52 -c 2 -a 0 -i 0 -k RTR
r -t 0.007911424 -s 3 -d -1 -p AOMDV -e 52 -c 2 -a 0 -i 0 -k MAC
r -t 0.007911429 -s 4 -d -1 -p AOMDV -e 52 -c 2 -a 0 -i 0 -k MAC
r -t 0.007911448 -s 2 -d -1 -p AOMDV -e 52 -c 2 -a 0 -i 0 -k MAC
r -t 0.007911807 -s 6 -d -1 -p AOMDV -e 52 -c 2 -a 0 -i 0 -k MAC
r -t 0.007911892 -s 5 -d -1 -p AOMDV -e 52 -c 2 -a 0 -i 0 -k MAC
r -t 0.007911913 -s 13 -d -1 -p AOMDV -e 52 -c 2 -a 0 -i 0 -k MAC
r -t 0.007911937 -s 8 -d -1 -p AOMDV -e 52 -c 2 -a 0 -i 0 -k MAC
r -t 0.007912086 -s 9 -d -1 -p AOMDV -e 52 -c 2 -a 0 -i 0 -k MAC
r -t 0.007912136 -s 7 -d -1 -p AOMDV -e 52 -c 2 -a 0 -i 0 -k MAC
r -t 0.007912375 -s 14 -d -1 -p AOMDV -e 52 -c 2 -a 0 -i 0 -k MAC
r -t 0.007912459 -s 0 -d -1 -p AOMDV -e 52 -c 2 -a 0 -i 0 -k MAC
r -t 0.007912548 -s 10 -d -1 -p AOMDV -e 52 -c 2 -a 0 -i 0 -k MAC
r -t 0.007912573 -s 11 -d -1 -p AOMDV -e 52 -c 2 -a 0 -i 0 -k MAC
r -t 0.007912618 -s 15 -d -1 -p AOMDV -e 52 -c 2 -a 0 -i 0 -k MAC
r -t 0.007912863 -s 16 -d -1 -p AOMDV -e 52 -c 2 -a 0 -i 0 -k MAC
r -t 0.007912875 -s 17 -d -1 -p AOMDV -e 52 -c 2 -a 0 -i 0 -k MAC
r -t 0.007913016 -s 12 -d -1 -p AOMDV -e 52 -c 2 -a 0 -i 0 -k MAC
r -t 0.007913054 -s 18 -d -1 -p AOMDV -e 52 -c 2 -a 0 -i 0 -k MAC
r -t 0.007913303 -s 21 -d -1 -p AOMDV -e 52 -c 2 -a 0 -i 0 -k MAC
r -t 0.007913533 -s 19 -d -1 -p AOMDV -e 52 -c 2 -a 0 -i 0 -k MAC
r -t 0.007913824 -s 20 -d -1 -p AOMDV -e 52 -c 2 -a 0 -i 0 -k MAC
r -t 0.007936424 -s 3 -d -1 -p AOMDV -e 52 -c 2 -a 0 -i 0 -k RTR
r -t 0.007936429 -s 4 -d -1 -p AOMDV -e 52 -c 2 -a 0 -i 0 -k RTR
r -t 0.007936448 -s 2 -d -1 -p AOMDV -e 52 -c 2 -a 0 -i 0 -k RTR
r -t 0.007936807 -s 6 -d -1 -p AOMDV -e 52 -c 2 -a 0 -i 0 -k RTR
r -t 0.007936892 -s 5 -d -1 -p AOMDV -e 52 -c 2 -a 0 -i 0 -k RTR
r -t 0.007936913 -s 13 -d -1 -p AOMDV -e 52 -c 2 -a 0 -i 0 -k RTR
r -t 0.007936937 -s 8 -d -1 -p AOMDV -e 52 -c 2 -a 0 -i 0 -k RTR
r -t 0.007937086 -s 9 -d -1 -p AOMDV -e 52 -c 2 -a 0 -i 0 -k RTR
r -t 0.007937136 -s 7 -d -1 -p AOMDV -e 52 -c 2 -a 0 -i 0 -k RTR
r -t 0.007937375 -s 14 -d -1 -p AOMDV -e 52 -c 2 -a 0 -i 0 -k RTR
r -t 0.007937459 -s 0 -d -1 -p AOMDV -e 52 -c 2 -a 0 -i 0 -k RTR
r -t 0.007937548 -s 10 -d -1 -p AOMDV -e 52 -c 2 -a 0 -i 0 -k RTR
r -t 0.007937573 -s 11 -d -1 -p AOMDV -e 52 -c 2 -a 0 -i 0 -k RTR
r -t 0.007937618 -s 15 -d -1 -p AOMDV -e 52 -c 2 -a 0 -i 0 -k RTR
r -t 0.007937863 -s 16 -d -1 -p AOMDV -e 52 -c 2 -a 0 -i 0 -k RTR
r -t 0.007937875 -s 17 -d -1 -p AOMDV -e 52 -c 2 -a 0 -i 0 -k RTR
+ -t 0.007937875 -s 17 -d 1 -p AOMDV -e 52 -c 2 -a 0 -i 0 -k RTR 
- -t 0.007937875 -s 17 -d 1 -p AOMDV -e 52 -c 2 -a 0 -i 0 -k RTR
h -t 0.007937875 -s 17 -d 1 -p AOMDV -e 52 -c 2 -a 0 -i 0 -k RTR
r -t 0.007938016 -s 12 -d -1 -p AOMDV -e 52 -c 2 -a 0 -i 0 -k RTR
r -t 0.007938054 -s 18 -d -1 -p AOMDV -e 52 -c 2 -a 0 -i 0 -k RTR
r -t 0.007938303 -s 21 -d -1 -p AOMDV -e 52 -c 2 -a 0 -i 0 -k RTR
r -t 0.007938533 -s 19 -d -1 -p AOMDV -e 52 -c 2 -a 0 -i 0 -k RTR
r -t 0.007938824 -s 20 -d -1 -p AOMDV -e 52 -c 2 -a 0 -i 0 -k RTR
+ -t 0.007982548 -s 10 -d -1 -p AOMDV -e 110 -c 2 -a 0 -i 0 -k MAC 
- -t 0.007982548 -s 10 -d -1 -p AOMDV -e 110 -c 2 -a 0 -i 0 -k MAC
h -t 0.007982548 -s 10 -d -1 -p AOMDV -e 110 -c 2 -a 0 -i 0 -k MAC
+ -t 0.008151438 -s 2 -d -1 -p AOMDV -e 52 -c 2 -a 0 -i 0 -k RTR 
- -t 0.008151438 -s 2 -d -1 -p AOMDV -e 52 -c 2 -a 0 -i 0 -k RTR
h -t 0.008151438 -s 2 -d -1 -p AOMDV -e 52 -c 2 -a 0 -i 0 -k RTR
+ -t 0.008298889 -s 18 -d -1 -p AOMDV -e 52 -c 2 -a 0 -i 0 -k RTR 
- -t 0.008298889 -s 18 -d -1 -p AOMDV -e 52 -c 2 -a 0 -i 0 -k RTR
h -t 0.008298889 -s 18 -d -1 -p AOMDV -e 52 -c 2 -a 0 -i 0 -k RTR
+ -t 0.008417184 -s 5 -d -1 -p AOMDV -e 52 -c 2 -a 0 -i 0 -k RTR 
- -t 0.008417184 -s 5 -d -1 -p AOMDV -e 52 -c 2 -a 0 -i 0 -k RTR
h -t 0.008417184 -s 5 -d -1 -p AOMDV -e 52 -c 2 -a 0 -i 0 -k RTR
+ -t 0.008481392 -s 8 -d -1 -p AOMDV -e 52 -c 2 -a 0 -i 0 -k RTR 
- -t 0.008481392 -s 8 -d -1 -p AOMDV -e 52 -c 2 -a 0 -i 0 -k RTR
h -t 0.008481392 -s 8 -d -1 -p AOMDV -e 52 -c 2 -a 0 -i 0 -k RTR
r -t 0.008863045 -s 7 -d -1 -p AOMDV -e 52 -c 2 -a 0 -i 0 -k MAC
r -t 0.008863078 -s 12 -d -1 -p AOMDV -e 52 -c 2 -a 0 -i 0 -k MAC
r -t 0.008863209 -s 11 -d -1 -p AOMDV -e 52 -c 2 -a 0 -i 0 -k MAC
r -t 0.008863235 -s 5 -d -1 -p AOMDV -e 52 -c 2 -a 0 -i 0 -k MAC
r -t 0.008863393 -s 6 -d -1 -p AOMDV -e 52 -c 2 -a 0 -i 0 -k MAC
r -t 0.008863536 -s 18 -d -1 -p AOMDV -e 52 -c 2 -a 0 -i 0 -k MAC
r -t 0.008863653 -s 19 -d -1 -p AOMDV -e 52 -c 2 -a 0 -i 0 -k MAC
r -t 0.008863672 -s 4 -d -1 -p AOMDV -e 52 -c 2 -a 0 -i 0 -k MAC
r -t 0.008863675 -s 0 -d -1 -p AOMDV -e 52 -c 2 -a 0 -i 0 -k MAC
r -t 0.008863739 -s 13 -d -1 -p AOMDV -e 52 -c 2 -a 0 -i 0 -k MAC
r -t 0.008863932 -s 3 -d -1 -p AOMDV -e 52 -c 2 -a 0 -i 0 -k MAC
r -t 0.008863972 -s 21 -d -1 -p AOMDV -e 52 -c 2 -a 0 -i 0 -k MAC
r -t 0.008864079 -s 8 -d -1 -p AOMDV -e 52 -c 2 -a 0 -i 0 -k MAC
r -t 0.008864131 -s 20 -d -1 -p AOMDV -e 52 -c 2 -a 0 -i 0 -k MAC
r -t 0.008864137 -s 14 -d -1 -p AOMDV -e 52 -c 2 -a 0 -i 0 -k MAC
r -t 0.008864160 -s 17 -d -1 -p AOMDV -e 52 -c 2 -a 0 -i 0 -k MAC
r -t 0.008864226 -s 1 -d -1 -p AOMDV -e 52 -c 2 -a 0 -i 0 -k MAC
r -t 0.008864358 -s 2 -d -1 -p AOMDV -e 52 -c 2 -a 0 -i 0 -k MAC
r -t 0.008864387 -s 16 -d -1 -p AOMDV -e 52 -c 2 -a 0 -i 0 -k MAC
r -t 0.008864523 -s 9 -d -1 -p AOMDV -e 52 -c 2 -a 0 -i 0 -k MAC
r -t 0.008864564 -s 15 -d -1 -p AOMDV -e 52 -c 2 -a 0 -i 0 -k MAC
r -t 0.008888045 -s 7 -d -1 -p AOMDV -e 52 -c 2 -a 0 -i 0 -k RTR
r -t 0.008888078 -s 12 -d -1 -p AOMDV -e 52 -c 2 -a 0 -i 0 -k RTR
r -t 0.008888209 -s 11 -d -1 -p AOMDV -e 52 -c 2 -a 0 -i 0 -k RTR
r -t 0.008888235 -s 5 -d -1 -p AOMDV -e 52 -c 2 -a 0 -i 0 -k RTR
r -t 0.008888393 -s 6 -d -1 -p AOMDV -e 52 -c 2 -a 0 -i 0 -k RTR
r -t 0.008888536 -s 18 -d -1 -p AOMDV -e 52 -c 2 -a 0 -i 0 -k RTR
r -t 0.008888653 -s 19 -d -1 -p AOMDV -e 52 -c 2 -a 0 -i 0 -k RTR
r -t 0.008888672 -s 4 -d -1 -p AOMDV -e 52 -c 2 -a 0 -i 0 -k RTR
r -t 0.008888675 -s 0 -d -1 -p AOMDV -e 52 -c 2 -a 0 -i 0 -k RTR
r -t 0.008888739 -s 13 -d -1 -p AOMDV -e 52 -c 2 -a 0 -i 0 -k RTR
r -t 0.008888932 -s 3 -d -1 -p AOMDV -e 52 -c 2 -a 0 -i 0 -k RTR
r -t 0.008888972 -s 21 -d -1 -p AOMDV -e 52 -c 2 -a 0 -i 0 -k RTR
r -t 0.008889079 -s 8 -d -1 -p AOMDV -e 52 -c 2 -a 0 -i 0 -k RTR
r -t 0.008889131 -s 20 -d -1 -p AOMDV -e 52 -c 2 -a 0 -i 0 -k RTR
r -t 0.008889137 -s 14 -d -1 -p AOMDV -e 52 -c 2 -a 0 -i 0 -k RTR
r -t 0.008889160 -s 17 -d -1 -p AOMDV -e 52 -c 2 -a 0 -i 0 -k RTR
+ -t 0.008889160 -s 17 -d 10 -p AOMDV -e 52 -c 2 -a 0 -i 0 -k RTR 
- -t 0.008889160 -s 17 -d 10 -p AOMDV -e 52 -c 2 -a 0 -i 0 -k RTR
h -t 0.008889160 -s 17 -d 10 -p AOMDV -e 52 -c 2 -a 0 -i 0 -k RTR
r -t 0.008889226 -s 1 -d -1 -p AOMDV -e 52 -c 2 -a 0 -i 0 -k RTR
r -t 0.008889358 -s 2 -d -1 -p AOMDV -e 52 -c 2 -a 0 -i 0 -k RTR
r -t 0.008889387 -s 16 -d -1 -p AOMDV -e 52 -c 2 -a 0 -i 0 -k RTR
r -t 0.008889523 -s 9 -d -1 -p AOMDV -e 52 -c 2 -a 0 -i 0 -k RTR
r -t 0.008889564 -s 15 -d -1 -p AOMDV -e 52 -c 2 -a 0 -i 0 -k RTR
+ -t 0.008934160 -s 17 -d -1 -p RTS -e 44 -c 2 -a 0 -i 0 -k MAC 
- -t 0.008934160 -s 17 -d -1 -p RTS -e 44 -c 2 -a 0 -i 0 -k MAC
h -t 0.008934160 -s 17 -d -1 -p RTS -e 44 -c 2 -a 0 -i 0 -k MAC
r -t 0.009287135 -s 13 -d -1 -p RTS -e 44 -c 2 -a 0 -i 0 -k MAC
+ -t 0.009297135 -s 13 -d -1 -p CTS -e 38 -c 2 -a 0 -i 0 -k MAC 
- -t 0.009297135 -s 13 -d -1 -p CTS -e 38 -c 2 -a 0 -i 0 -k MAC
h -t 0.009297135 -s 13 -d -1 -p CTS -e 38 -c 2 -a 0 -i 0 -k MAC
r -t 0.009602109 -s 17 -d -1 -p CTS -e 38 -c 2 -a 0 -i 0 -k MAC
+ -t 0.009612109 -s 17 -d 13 -p AOMDV -e 110 -c 2 -a 0 -i 0 -k MAC 
- -t 0.009612109 -s 17 -d 13 -p AOMDV -e 110 -c 2 -a 0 -i 0 -k MAC
h -t 0.009612109 -s 17 -d 13 -p AOMDV -e 110 -c 2 -a 0 -i 0 -k MAC
+ -t 0.009640478 -s 19 -d -1 -p AOMDV -e 52 -c 2 -a 0 -i 0 -k RTR 
- -t 0.009640478 -s 19 -d -1 -p AOMDV -e 52 -c 2 -a 0 -i 0 -k RTR
h -t 0.009640478 -s 19 -d -1 -p AOMDV -e 52 -c 2 -a 0 -i 0 -k RTR
+ -t 0.010094231 -s 20 -d -1 -p AOMDV -e 52 -c 2 -a 0 -i 0 -k RTR 
- -t 0.010094231 -s 20 -d -1 -p AOMDV -e 52 -c 2 -a 0 -i 0 -k RTR
h -t 0.010094231 -s 20 -d -1 -p AOMDV -e 52 -c 2 -a 0 -i 0 -k RTR
+ -t 0.010250607 -s 3 -d -1 -p AOMDV -e 52 -c 2 -a 0 -i 0 -k RTR 
- -t 0.010250607 -s 3 -d -1 -p AOMDV -e 52 -c 2 -a 0 -i 0 -k RTR
h -t 0.010250607 -s 3 -d -1 -p AOMDV -e 52 -c 2 -a 0 -i 0 -k RTR
r -t 0.010493083 -s 13 -d 13 -p AOMDV -e 52 -c 2 -a 0 -i 0 -k MAC
+ -t 0.010503083 -s 13 -d -1 -p ACK -e 38 -c 2 -a 0 -i 0 -k MAC 
- -t 0.010503083 -s 13 -d -1 -p ACK -e 38 -c 2 -a 0 -i 0 -k MAC
h -t 0.010503083 -s 13 -d -1 -p ACK -e 38 -c 2 -a 0 -i 0 -k MAC
+ -t 0.010518083 -s 13 -d 0 -p AOMDV -e 52 -c 2 -a 0 -i 0 -k RTR 
- -t 0.010518083 -s 13 -d 0 -p AOMDV -e 52 -c 2 -a 0 -i 0 -k RTR